16
        Energy:       4.4808066
C         -1.94813        2.90071       -0.57845
C         -2.77081        2.50442       -1.79544
H         -0.88801        3.03645       -0.87787
H         -2.01162        2.12132        0.20915
H         -2.32654        3.85778       -0.16514
O         -2.27838        1.32279       -2.35207
O         -4.10789        2.32925       -1.43657
H         -1.65969        1.61418       -3.06854
H         -1.83142       -0.50730        1.30900
O          0.52253        0.70355        0.91540
C          0.19447       -0.60527        0.53454
C         -1.30987       -0.77987        0.36752
H         -1.54014       -1.83664        0.12120
H          0.49506        1.26684        0.09809
H         -1.68543       -0.14122       -0.45186
O          0.86649       -0.96217       -0.64019
