[Molden Format]
[Title]
                                                                                
[Atoms] AU
 c     1    6 -.75404282729825E+01 0.23863831266946E+01 -.47246395398967E+01
 c     2    6 -.10266854966045E+02 0.17926719385083E+01 -.52460801014234E+01
 h     3    1 -.64511594174242E+01 0.22012209247628E+01 -.64659873754804E+01
 h     4    1 -.67872133535204E+01 0.10157309947770E+01 -.33798053229638E+01
 h     5    1 -.73666182035864E+01 0.42886894680702E+01 -.39726161602684E+01
 o     6    8 -.10615727227889E+02 -.48277600515970E+00 -.61965993067407E+01
 o     7    8 -.11981366121870E+02 0.33001229497031E+01 -.48160215306308E+01
 h     8    1 -.12472363231224E+02 -.79813119610438E+00 -.65127967226606E+01
 h     9    1 -.20620707346686E+02 0.91140676410608E+00 -.84712607961510E+01
 o    10    8 -.16787120249589E+02 0.24036653664429E+01 -.56654015673591E+01
 c    11    6 -.17135824141586E+02 0.12835756476626E+00 -.66163379275675E+01
 c    12    6 -.19862304331680E+02 -.46614231191501E+00 -.71365384594819E+01
 h    13    1 -.20948071727533E+02 -.29340143784693E+00 -.53916428138287E+01
 h    14    1 -.14930475152057E+02 0.27192661473403E+01 -.53495045041089E+01
 h    15    1 -.20034730386384E+02 -.23644353341648E+01 -.78989531314391E+01
 o    16    8 -.15421156623671E+02 -.13787586675122E+01 -.70470140414119E+01
[GTO]
    1 0
 s    6 1.00
 0.13575349682000E+05 0.60645503603591E-03
 0.20352333680000E+04 0.46979088884982E-02
 0.46322562359000E+03 0.24332477647552E-01
 0.13120019598000E+03 0.97399968307759E-01
 0.42853015891000E+02 0.30195584253780E+00
 0.15584185766000E+02 0.66233609137875E+00
 s    2 1.00
 0.62067138508000E+01 0.65595308539952E+00
 0.25764896527000E+01 0.37585633285142E+00
 s    1 1.00
 0.57696339419000E+00 0.10000000000000E+01
 s    1 1.00
 0.22972831358000E+00 0.10000000000000E+01
 s    1 1.00
 0.95164440028000E-01 0.10000000000000E+01
 p    4 1.00
 0.34697232244000E+02 0.11327220003114E-01
 0.79582622826000E+01 0.76169659202087E-01
 0.23780826883000E+01 0.30192252202676E+00
 0.81433208183000E+00 0.72785027349547E+00
 p    1 1.00
 0.28887547253000E+00 0.10000000000000E+01
 p    1 1.00
 0.10056823671000E+00 0.10000000000000E+01
 d    1 1.00
 0.10970000000000E+01 0.10000000000000E+01
 d    1 1.00
 0.31800000000000E+00 0.10000000000000E+01
 f    1 1.00
 0.76100000000000E+00 0.10000000000000E+01
 
    2 0
 s    6 1.00
 0.13575349682000E+05 0.60645503603591E-03
 0.20352333680000E+04 0.46979088884982E-02
 0.46322562359000E+03 0.24332477647552E-01
 0.13120019598000E+03 0.97399968307759E-01
 0.42853015891000E+02 0.30195584253780E+00
 0.15584185766000E+02 0.66233609137875E+00
 s    2 1.00
 0.62067138508000E+01 0.65595308539952E+00
 0.25764896527000E+01 0.37585633285142E+00
 s    1 1.00
 0.57696339419000E+00 0.10000000000000E+01
 s    1 1.00
 0.22972831358000E+00 0.10000000000000E+01
 s    1 1.00
 0.95164440028000E-01 0.10000000000000E+01
 p    4 1.00
 0.34697232244000E+02 0.11327220003114E-01
 0.79582622826000E+01 0.76169659202087E-01
 0.23780826883000E+01 0.30192252202676E+00
 0.81433208183000E+00 0.72785027349547E+00
 p    1 1.00
 0.28887547253000E+00 0.10000000000000E+01
 p    1 1.00
 0.10056823671000E+00 0.10000000000000E+01
 d    1 1.00
 0.10970000000000E+01 0.10000000000000E+01
 d    1 1.00
 0.31800000000000E+00 0.10000000000000E+01
 f    1 1.00
 0.76100000000000E+00 0.10000000000000E+01
 
    3 0
 s    3 1.00
 0.34061341000000E+02 0.25439307208879E-01
 0.51235746000000E+01 0.19008594890375E+00
 0.11646626000000E+01 0.85244113011042E+00
 s    1 1.00
 0.32723041000000E+00 0.10000000000000E+01
 s    1 1.00
 0.10307241000000E+00 0.10000000000000E+01
 p    1 1.00
 0.14070000000000E+01 0.10000000000000E+01
 p    1 1.00
 0.38800000000000E+00 0.10000000000000E+01
 d    1 1.00
 0.10570000000000E+01 0.10000000000000E+01
 
    4 0
 s    3 1.00
 0.34061341000000E+02 0.25439307208879E-01
 0.51235746000000E+01 0.19008594890375E+00
 0.11646626000000E+01 0.85244113011042E+00
 s    1 1.00
 0.32723041000000E+00 0.10000000000000E+01
 s    1 1.00
 0.10307241000000E+00 0.10000000000000E+01
 p    1 1.00
 0.14070000000000E+01 0.10000000000000E+01
 p    1 1.00
 0.38800000000000E+00 0.10000000000000E+01
 d    1 1.00
 0.10570000000000E+01 0.10000000000000E+01
 
    5 0
 s    3 1.00
 0.34061341000000E+02 0.25439307208879E-01
 0.51235746000000E+01 0.19008594890375E+00
 0.11646626000000E+01 0.85244113011042E+00
 s    1 1.00
 0.32723041000000E+00 0.10000000000000E+01
 s    1 1.00
 0.10307241000000E+00 0.10000000000000E+01
 p    1 1.00
 0.14070000000000E+01 0.10000000000000E+01
 p    1 1.00
 0.38800000000000E+00 0.10000000000000E+01
 d    1 1.00
 0.10570000000000E+01 0.10000000000000E+01
 
    6 0
 s    6 1.00
 0.27032382631000E+05 0.57227335211155E-03
 0.40523871392000E+04 0.44353233492995E-02
 0.92232722710000E+03 0.23020107706038E-01
 0.26124070989000E+03 0.92822490667928E-01
 0.85354641351000E+02 0.29378500009671E+00
 0.31035035245000E+02 0.67401604501641E+00
 s    2 1.00
 0.12260860728000E+02 0.63839937025506E+00
 0.49987076005000E+01 0.39534587125718E+00
 s    1 1.00
 0.11703108158000E+01 0.10000000000000E+01
 s    1 1.00
 0.46474740994000E+00 0.10000000000000E+01
 s    1 1.00
 0.18504536357000E+00 0.10000000000000E+01
 p    4 1.00
 0.63274954801000E+02 0.12018332222616E-01
 0.14627049379000E+02 0.83005421790056E-01
 0.44501223456000E+01 0.31991743925964E+00
 0.15275799647000E+01 0.70715542916104E+00
 p    1 1.00
 0.52935117943000E+00 0.10000000000000E+01
 p    1 1.00
 0.17478421270000E+00 0.10000000000000E+01
 d    1 1.00
 0.23140000000000E+01 0.10000000000000E+01
 d    1 1.00
 0.64500000000000E+00 0.10000000000000E+01
 f    1 1.00
 0.14280000000000E+01 0.10000000000000E+01
 
    7 0
 s    6 1.00
 0.27032382631000E+05 0.57227335211155E-03
 0.40523871392000E+04 0.44353233492995E-02
 0.92232722710000E+03 0.23020107706038E-01
 0.26124070989000E+03 0.92822490667928E-01
 0.85354641351000E+02 0.29378500009671E+00
 0.31035035245000E+02 0.67401604501641E+00
 s    2 1.00
 0.12260860728000E+02 0.63839937025506E+00
 0.49987076005000E+01 0.39534587125718E+00
 s    1 1.00
 0.11703108158000E+01 0.10000000000000E+01
 s    1 1.00
 0.46474740994000E+00 0.10000000000000E+01
 s    1 1.00
 0.18504536357000E+00 0.10000000000000E+01
 p    4 1.00
 0.63274954801000E+02 0.12018332222616E-01
 0.14627049379000E+02 0.83005421790056E-01
 0.44501223456000E+01 0.31991743925964E+00
 0.15275799647000E+01 0.70715542916104E+00
 p    1 1.00
 0.52935117943000E+00 0.10000000000000E+01
 p    1 1.00
 0.17478421270000E+00 0.10000000000000E+01
 d    1 1.00
 0.23140000000000E+01 0.10000000000000E+01
 d    1 1.00
 0.64500000000000E+00 0.10000000000000E+01
 f    1 1.00
 0.14280000000000E+01 0.10000000000000E+01
 
    8 0
 s    3 1.00
 0.34061341000000E+02 0.25439307208879E-01
 0.51235746000000E+01 0.19008594890375E+00
 0.11646626000000E+01 0.85244113011042E+00
 s    1 1.00
 0.32723041000000E+00 0.10000000000000E+01
 s    1 1.00
 0.10307241000000E+00 0.10000000000000E+01
 p    1 1.00
 0.14070000000000E+01 0.10000000000000E+01
 p    1 1.00
 0.38800000000000E+00 0.10000000000000E+01
 d    1 1.00
 0.10570000000000E+01 0.10000000000000E+01
 
    9 0
 s    3 1.00
 0.34061341000000E+02 0.25439307208879E-01
 0.51235746000000E+01 0.19008594890375E+00
 0.11646626000000E+01 0.85244113011042E+00
 s    1 1.00
 0.32723041000000E+00 0.10000000000000E+01
 s    1 1.00
 0.10307241000000E+00 0.10000000000000E+01
 p    1 1.00
 0.14070000000000E+01 0.10000000000000E+01
 p    1 1.00
 0.38800000000000E+00 0.10000000000000E+01
 d    1 1.00
 0.10570000000000E+01 0.10000000000000E+01
 
   10 0
 s    6 1.00
 0.27032382631000E+05 0.57227335211155E-03
 0.40523871392000E+04 0.44353233492995E-02
 0.92232722710000E+03 0.23020107706038E-01
 0.26124070989000E+03 0.92822490667928E-01
 0.85354641351000E+02 0.29378500009671E+00
 0.31035035245000E+02 0.67401604501641E+00
 s    2 1.00
 0.12260860728000E+02 0.63839937025506E+00
 0.49987076005000E+01 0.39534587125718E+00
 s    1 1.00
 0.11703108158000E+01 0.10000000000000E+01
 s    1 1.00
 0.46474740994000E+00 0.10000000000000E+01
 s    1 1.00
 0.18504536357000E+00 0.10000000000000E+01
 p    4 1.00
 0.63274954801000E+02 0.12018332222616E-01
 0.14627049379000E+02 0.83005421790056E-01
 0.44501223456000E+01 0.31991743925964E+00
 0.15275799647000E+01 0.70715542916104E+00
 p    1 1.00
 0.52935117943000E+00 0.10000000000000E+01
 p    1 1.00
 0.17478421270000E+00 0.10000000000000E+01
 d    1 1.00
 0.23140000000000E+01 0.10000000000000E+01
 d    1 1.00
 0.64500000000000E+00 0.10000000000000E+01
 f    1 1.00
 0.14280000000000E+01 0.10000000000000E+01
 
   11 0
 s    6 1.00
 0.13575349682000E+05 0.60645503603591E-03
 0.20352333680000E+04 0.46979088884982E-02
 0.46322562359000E+03 0.24332477647552E-01
 0.13120019598000E+03 0.97399968307759E-01
 0.42853015891000E+02 0.30195584253780E+00
 0.15584185766000E+02 0.66233609137875E+00
 s    2 1.00
 0.62067138508000E+01 0.65595308539952E+00
 0.25764896527000E+01 0.37585633285142E+00
 s    1 1.00
 0.57696339419000E+00 0.10000000000000E+01
 s    1 1.00
 0.22972831358000E+00 0.10000000000000E+01
 s    1 1.00
 0.95164440028000E-01 0.10000000000000E+01
 p    4 1.00
 0.34697232244000E+02 0.11327220003114E-01
 0.79582622826000E+01 0.76169659202087E-01
 0.23780826883000E+01 0.30192252202676E+00
 0.81433208183000E+00 0.72785027349547E+00
 p    1 1.00
 0.28887547253000E+00 0.10000000000000E+01
 p    1 1.00
 0.10056823671000E+00 0.10000000000000E+01
 d    1 1.00
 0.10970000000000E+01 0.10000000000000E+01
 d    1 1.00
 0.31800000000000E+00 0.10000000000000E+01
 f    1 1.00
 0.76100000000000E+00 0.10000000000000E+01
 
   12 0
 s    6 1.00
 0.13575349682000E+05 0.60645503603591E-03
 0.20352333680000E+04 0.46979088884982E-02
 0.46322562359000E+03 0.24332477647552E-01
 0.13120019598000E+03 0.97399968307759E-01
 0.42853015891000E+02 0.30195584253780E+00
 0.15584185766000E+02 0.66233609137875E+00
 s    2 1.00
 0.62067138508000E+01 0.65595308539952E+00
 0.25764896527000E+01 0.37585633285142E+00
 s    1 1.00
 0.57696339419000E+00 0.10000000000000E+01
 s    1 1.00
 0.22972831358000E+00 0.10000000000000E+01
 s    1 1.00
 0.95164440028000E-01 0.10000000000000E+01
 p    4 1.00
 0.34697232244000E+02 0.11327220003114E-01
 0.79582622826000E+01 0.76169659202087E-01
 0.23780826883000E+01 0.30192252202676E+00
 0.81433208183000E+00 0.72785027349547E+00
 p    1 1.00
 0.28887547253000E+00 0.10000000000000E+01
 p    1 1.00
 0.10056823671000E+00 0.10000000000000E+01
 d    1 1.00
 0.10970000000000E+01 0.10000000000000E+01
 d    1 1.00
 0.31800000000000E+00 0.10000000000000E+01
 f    1 1.00
 0.76100000000000E+00 0.10000000000000E+01
 
   13 0
 s    3 1.00
 0.34061341000000E+02 0.25439307208879E-01
 0.51235746000000E+01 0.19008594890375E+00
 0.11646626000000E+01 0.85244113011042E+00
 s    1 1.00
 0.32723041000000E+00 0.10000000000000E+01
 s    1 1.00
 0.10307241000000E+00 0.10000000000000E+01
 p    1 1.00
 0.14070000000000E+01 0.10000000000000E+01
 p    1 1.00
 0.38800000000000E+00 0.10000000000000E+01
 d    1 1.00
 0.10570000000000E+01 0.10000000000000E+01
 
   14 0
 s    3 1.00
 0.34061341000000E+02 0.25439307208879E-01
 0.51235746000000E+01 0.19008594890375E+00
 0.11646626000000E+01 0.85244113011042E+00
 s    1 1.00
 0.32723041000000E+00 0.10000000000000E+01
 s    1 1.00
 0.10307241000000E+00 0.10000000000000E+01
 p    1 1.00
 0.14070000000000E+01 0.10000000000000E+01
 p    1 1.00
 0.38800000000000E+00 0.10000000000000E+01
 d    1 1.00
 0.10570000000000E+01 0.10000000000000E+01
 
   15 0
 s    3 1.00
 0.34061341000000E+02 0.25439307208879E-01
 0.51235746000000E+01 0.19008594890375E+00
 0.11646626000000E+01 0.85244113011042E+00
 s    1 1.00
 0.32723041000000E+00 0.10000000000000E+01
 s    1 1.00
 0.10307241000000E+00 0.10000000000000E+01
 p    1 1.00
 0.14070000000000E+01 0.10000000000000E+01
 p    1 1.00
 0.38800000000000E+00 0.10000000000000E+01
 d    1 1.00
 0.10570000000000E+01 0.10000000000000E+01
 
   16 0
 s    6 1.00
 0.27032382631000E+05 0.57227335211155E-03
 0.40523871392000E+04 0.44353233492995E-02
 0.92232722710000E+03 0.23020107706038E-01
 0.26124070989000E+03 0.92822490667928E-01
 0.85354641351000E+02 0.29378500009671E+00
 0.31035035245000E+02 0.67401604501641E+00
 s    2 1.00
 0.12260860728000E+02 0.63839937025506E+00
 0.49987076005000E+01 0.39534587125718E+00
 s    1 1.00
 0.11703108158000E+01 0.10000000000000E+01
 s    1 1.00
 0.46474740994000E+00 0.10000000000000E+01
 s    1 1.00
 0.18504536357000E+00 0.10000000000000E+01
 p    4 1.00
 0.63274954801000E+02 0.12018332222616E-01
 0.14627049379000E+02 0.83005421790056E-01
 0.44501223456000E+01 0.31991743925964E+00
 0.15275799647000E+01 0.70715542916104E+00
 p    1 1.00
 0.52935117943000E+00 0.10000000000000E+01
 p    1 1.00
 0.17478421270000E+00 0.10000000000000E+01
 d    1 1.00
 0.23140000000000E+01 0.10000000000000E+01
 d    1 1.00
 0.64500000000000E+00 0.10000000000000E+01
 f    1 1.00
 0.14280000000000E+01 0.10000000000000E+01
 
[MO]
 Sym=     1a   
 Ene= -.18784656264883E+02
 Spin= Alpha
 Occup= 2.000000
     1 0.21307933455345E-05
     2 0.56723364893928E-05
     3 -.48110826590983E-04
     4 0.35015318563474E-03
     5 0.21950022728838E-03
     6 0.18737352032906E-04
     7 -.51187955430347E-06
     8 0.15435215394383E-05
     9 0.18810200574070E-04
    10 -.11835639533010E-03
    11 -.37655260225776E-04
    12 -.66296098508378E-04
    13 -.41265029068202E-04
    14 -.23086474763447E-04
    15 -.20814773861099E-05
    16 0.15555630883824E-05
    17 0.52591429772744E-06
    18 0.74649449533147E-06
    19 0.71277425398649E-07
    20 0.66771038560000E-06
    21 0.13480115404896E-04
    22 -.38173327615908E-04
    23 0.24693212211013E-04
    24 -.20804273676749E-04
    25 -.10612786171211E-04
    26 -.37942536075544E-04
    27 -.17816802559580E-05
    28 -.44762421821687E-06
    29 -.14872795135675E-05
    30 0.79607457354662E-06
    31 0.20868582769905E-05
    32 0.25389479296515E-06
    33 0.15943003263481E-05
    34 -.14863073688056E-05
    35 0.17415000633627E-05
    36 0.28894157752140E-06
    37 -.12103704267708E-05
    38 -.22039574091495E-04
    39 0.86270151683324E-05
    40 0.38711725123017E-03
    41 0.25564529345772E-03
    42 -.36979515429560E-04
    43 0.29350910930740E-05
    44 -.25096179435316E-05
    45 -.10618690351751E-03
    46 -.30915110639303E-03
    47 -.13590358265867E-03
    48 -.53783735544586E-03
    49 0.27390681705772E-04
    50 -.44071567532967E-04
    51 0.21646338209503E-05
    52 0.24444698220270E-05
    53 -.46091036429773E-05
    54 -.87930386010483E-07
    55 0.97527878006911E-06
    56 0.39738214917351E-05
    57 -.68244726448885E-04
    58 0.99532554936695E-04
    59 -.31287828487811E-04
    60 -.79427055321614E-05
    61 -.49988484425958E-05
    62 0.71027919400198E-04
    63 -.13769683582342E-06
    64 -.85272321339940E-05
    65 0.68308021015712E-05
    66 -.45499212043036E-06
    67 0.84879283938475E-05
    68 0.31506618630360E-05
    69 0.63973181154304E-06
    70 0.29525540330713E-05
    71 -.12315144567013E-04
    72 -.81543322434572E-06
    73 0.28820154253114E-05
    74 -.13545059257075E-03
    75 0.93207420159367E-05
    76 0.35472370656109E-05
    77 0.18697729132112E-06
    78 0.40137048279062E-06
    79 0.25586802862381E-04
    80 -.14676461401009E-04
    81 -.56393271024279E-04
    82 -.11473694900370E-05
    83 0.21548078987116E-05
    84 -.10074384086747E-05
    85 0.21381581484680E-05
    86 0.21185158406751E-05
    87 -.13323148166706E-06
    88 0.26976396221813E-05
    89 -.14404482426017E-03
    90 0.88687347256534E-05
    91 0.36518625677299E-05
    92 0.10979448103521E-06
    93 0.64902130382246E-06
    94 0.17231884673680E-04
    95 -.52092254973286E-04
    96 0.38147306218719E-04
    97 -.69035151684901E-06
    98 0.26717450550556E-06
    99 0.42317701134346E-06
   100 0.27906575986482E-05
   101 -.36853275043581E-06
   102 0.25119724002363E-05
   103 -.80468264369016E-06
   104 0.88459382835789E-04
   105 0.17598098195060E-04
   106 0.40881926376955E-05
   107 0.62448377584176E-07
   108 0.44367491519601E-06
   109 -.12556178667728E-04
   110 -.23669744898471E-04
   111 -.99984808494824E-05
   112 0.20944271428156E-05
   113 -.75867807991975E-06
   114 -.13357490628959E-05
   115 -.16892207568417E-06
   116 0.32408094096177E-06
   117 0.22913654329721E-06
   118 0.28449026188073E-01
   119 0.41904777691056E-01
   120 0.17648871531270E-02
   121 -.11368388970793E-02
   122 0.97682976350182E-04
   123 -.63791481015223E-04
   124 0.83108198156242E-04
   125 0.26977871274192E-04
   126 0.12028169152303E-03
   127 -.21092571765239E-03
   128 -.72665661707307E-04
   129 0.53199729107502E-04
   130 -.15849849813995E-03
   131 -.58248591909749E-04
   132 0.17550179230190E-05
   133 0.27497368285532E-05
   134 -.45047547515722E-05
   135 0.11376187693578E-05
   136 0.13804548800364E-05
   137 0.42271738178598E-05
   138 -.10132135562757E-04
   139 -.21013163645628E-04
   140 0.31145299208385E-04
   141 -.23979568218351E-04
   142 -.15999634243393E-04
   143 -.32620064293819E-04
   144 0.15108095277186E-05
   145 -.11647439749749E-05
   146 0.78470460018938E-06
   147 -.16838760297834E-05
   148 0.13032767553494E-05
   149 0.75338213611203E-06
   150 -.34308765323655E-06
   151 0.25939126730686E-06
   152 -.18061738330802E-05
   153 -.72133442444441E-06
   154 -.87466912652630E-04
   155 -.91385013654007E-04
   156 -.23119118419302E-03
   157 0.19537451547803E-03
   158 0.25191866501889E-03
   159 0.16224711843082E-03
   160 0.41642048482118E-04
   161 0.33240072395118E-04
   162 -.28315100278245E-03
   163 -.47434870561829E-04
   164 -.47833689422751E-04
   165 -.43728289368915E-03
   166 0.45621263739675E-04
   167 -.26248946309677E-04
   168 -.33110437221661E-04
   169 0.17631878852362E-04
   170 0.15478558369298E-04
   171 -.15514610993246E-04
   172 -.12124848171694E-04
   173 -.12853895785654E-05
   174 0.15708494856167E-03
   175 -.85781830595271E-04
   176 -.71303117966399E-04
   177 0.68100369912913E-04
   178 0.54907912767277E-04
   179 0.29447007353088E-05
   180 -.87239289204306E-05
   181 0.48806591214960E-05
   182 0.27862387956093E-05
   183 0.44243940059641E-05
   184 -.75932200252497E-05
   185 -.60978218571668E-05
   186 0.72799848522114E-05
   187 0.10451286828480E-05
   188 0.23596902480490E-05
   189 -.31869200010585E-05
   190 0.21003561180850E-04
   191 0.24258772394755E-03
   192 -.50871864889193E-03
   193 -.17925310911470E-05
   194 0.40825699730907E-05
   195 0.14409905480456E-05
   196 0.20205427391244E-03
   197 0.40324939439755E-04
   198 0.36908996670680E-04
   199 0.14518279585052E-04
   200 -.76136338413106E-05
   201 -.69046457437418E-05
   202 -.34590608019404E-06
   203 0.23988046006763E-05
   204 -.32183981226360E-06
   205 -.15331707647966E-04
   206 -.82492395949566E-03
   207 0.40810287190694E-03
   208 -.18024912196696E-04
   209 0.16179385750484E-04
   210 -.11694715415140E-04
   211 -.18472663887725E-03
   212 0.25611759326175E-03
   213 -.18702272217385E-03
   214 -.11697287418143E-04
   215 0.95273722859513E-05
   216 0.21699151321914E-05
   217 0.19284593979575E-04
   218 -.11821747364822E-04
   219 0.16416028234040E-04
   220 0.43440891937217E+00
   221 0.63992024430779E+00
   222 0.26241445411780E-01
   223 -.14967091263151E-01
   224 0.32573617152449E-02
   225 0.90699964109443E-03
   226 -.12074204009144E-02
   227 -.39362124368636E-03
   228 -.16240117024311E-02
   229 0.28738147721766E-02
   230 0.99114915205448E-03
   231 -.35731007440092E-03
   232 0.37399503129762E-03
   233 0.11409181300177E-03
   234 0.38249511974515E-04
   235 0.28225036628471E-04
   236 -.66474548602987E-04
   237 0.23860440873849E-04
   238 0.24468136372225E-04
   239 0.56606647826163E-04
   240 -.24230037999904E-04
   241 -.24681218270812E-03
   242 0.27104222070803E-03
   243 -.13040294326643E-03
   244 -.10079956866068E-03
   245 -.30787930956541E-03
   246 0.51580084288323E-05
   247 0.42315537612986E-05
   248 -.10481809113154E-04
   249 -.38055570292625E-05
   250 -.35744817837829E-07
   251 0.16144662724425E-05
   252 -.31146374559691E-05
   253 -.56414802985873E-05
   254 0.12448356350072E-04
   255 0.18746002404056E-05
   256 -.54456707216774E-05
   257 -.16476641289281E-03
   258 0.14742432783199E-03
   259 0.15606611248078E-02
   260 0.50322413689127E-03
   261 0.14161766710587E-04
   262 0.26432829873416E-03
   263 0.10778834617855E-03
   264 0.16929610181121E-02
   265 0.38106678088447E-02
   266 0.17061790454509E-02
   267 0.10223096059477E-03
   268 -.11834751700954E-02
   269 -.46649654014283E-03
   270 -.48186727483675E-04
   271 0.10302274727007E-03
   272 -.54836019786399E-04
   273 0.56288438263190E-04
   274 0.27658704374790E-04
   275 0.95713362704014E-04
   276 -.12017298882363E-02
   277 0.12309682370224E-02
   278 -.29238348786129E-04
   279 0.22104727955223E-03
   280 -.19815761493744E-04
   281 0.72393213438864E-03
   282 -.16006300503466E-04
   283 -.53759702434913E-05
   284 -.45368130378725E-04
   285 0.17613520415832E-04
   286 0.35947315765870E-04
   287 0.13898021196025E-04
   288 0.38611851805914E-05
   289 -.28734694820192E-04
   290 0.46969712927317E-04
   291 0.23338912335383E-04
   292 0.21343945560711E-04
   293 -.12011986586838E-04
   294 -.17213848881136E-03
   295 0.31112009517839E-02
   296 -.20217458231960E-02
   297 -.30417767871282E-04
   298 -.70336440165640E-04
   299 -.30336276337017E-04
   300 0.97696341846803E-03
   301 0.13261451481970E-02
   302 0.61755800133572E-03
   303 -.26164521985664E-03
   304 0.33741413249857E-04
   305 -.68299027725955E-05
   306 0.22023841548886E-04
   307 -.86062647997396E-06
   308 -.21163215068912E-04
   309 -.16570250358339E-06
   310 0.53177867611057E-05
   311 0.11641527454084E-04
   312 0.27434434282623E-03
   313 -.41437847297746E-03
   314 0.14003413015123E-03
   315 0.37605523161985E-04
   316 0.22079376256370E-04
   317 -.29701228684885E-03
   318 0.33841329448954E-04
   319 0.66277969227459E-08
   320 0.78138200113785E-05
   321 -.30123461262127E-04
   322 -.66114856238016E-05
   323 0.46709640025976E-05
   324 -.15279446595969E-04
   325 0.66025935011254E-05
   326 -.15154303628232E-04
   327 -.11482577172703E-04
   328 -.13797487608982E-04
   329 -.81374625627402E-03
   330 0.39825686506850E-03
   331 -.19870785233455E-04
   332 0.51332872486467E-05
   333 0.16444006986771E-04
   334 -.23466906747379E-03
   335 0.78088684822407E-04
   336 0.26933049144998E-03
   337 -.17674456166989E-04
   338 0.19565600384281E-04
   339 -.18911442172920E-05
   340 0.85404714857158E-05
   341 0.20166025232312E-04
   342 0.27254713556022E-05
   343 0.42146256691154E-03
   344 0.22169835030206E-02
   345 -.12587182736831E-02
   346 0.10809987422049E-03
   347 -.95470209937138E-05
   348 0.70941392124545E-05
   349 -.21171763942088E-02
   350 -.45408933746547E-03
   351 -.39792688857697E-03
   352 -.89068868293803E-04
   353 0.49965646980577E-04
   354 0.39103221313226E-04
   355 0.11283008937202E-04
   356 -.10334717058075E-04
   357 0.68714241952546E-05
   358 0.76127802795262E-04
   359 0.97568869339481E-03
   360 0.14084473384813E-03
   361 0.66842109701399E-04
   362 0.29634888652433E-05
   363 0.82616987573788E-05
   364 -.12273248956303E-03
   365 0.24465680969580E-03
   366 0.79492344811250E-04
   367 -.60309650914496E-05
   368 -.37705547840630E-05
   369 0.98015198755126E-05
   370 0.70083029973890E-05
   371 0.22073036066796E-06
   372 -.68994168408710E-05
   373 0.45332376112751E-05
   374 0.75805119232870E-05
   375 -.93806981807394E-04
   376 0.86074211933100E-03
   377 -.73027447733943E-03
   378 -.85220466553193E-04
   379 -.69334654994880E-04
   380 -.36620406955243E-04
   381 0.25067868077821E-04
   382 0.28035641890262E-03
   383 0.11512407879213E-03
   384 0.47848325965216E-03
   385 0.97390941455028E-04
   386 0.87810492969730E-04
   387 0.20104923228199E-04
   388 0.21350943615318E-05
   389 -.22240017589731E-04
   390 -.51514010761794E-05
   391 0.34861695839477E-05
   392 0.13053645040294E-04
   393 -.11824426224636E-03
   394 0.47768779556770E-04
   395 0.70475482689590E-04
   396 -.15019147101258E-04
   397 -.29215136699991E-04
   398 -.15880644907286E-04
   399 0.92013953472495E-05
   400 -.25297416290127E-05
   401 0.34898812702527E-05
   402 -.55803939302276E-05
   403 0.36463571475045E-06
   404 0.27875304157769E-05
   405 -.67645733603526E-05
   406 0.30293688340396E-05
   407 -.74696974679900E-05
   408 -.22467276576243E-06
 Sym=     2a   
 Ene= -.18784642159844E+02
 Spin= Alpha
 Occup= 2.000000
     1 -.21246305852681E-04
     2 0.12851003710894E-04
     3 0.16724409278707E-03
     4 -.30912150913318E-02
     5 0.20674428623539E-02
     6 -.28304342328983E-04
     7 -.71207188896054E-04
     8 -.29783952470931E-04
     9 0.98947640490859E-03
    10 0.13244314466171E-02
    11 0.60883686256459E-03
    12 -.27288708813273E-03
    13 0.27341872458515E-04
    14 -.65194128187652E-05
    15 -.22513611926555E-04
    16 0.11096179664736E-05
    17 0.21403993960082E-04
    18 0.22552796867675E-06
    19 -.52292348395080E-05
    20 -.11712287289843E-04
    21 -.27468657324555E-03
    22 0.41409527381313E-03
    23 -.13940870056758E-03
    24 -.39806909305186E-04
    25 -.25100318180756E-04
    26 0.29297509257530E-03
    27 0.33843968835369E-04
    28 -.19944412536129E-06
    29 0.74637435206640E-05
    30 -.30252212429386E-04
    31 -.64728165732032E-05
    32 0.49421827599012E-05
    33 -.15154236537176E-04
    34 0.67403989464157E-05
    35 -.14955845487198E-04
    36 -.11640271725811E-04
    37 0.53330542392690E-05
    38 0.16328832002966E-03
    39 -.14762972519183E-03
    40 -.15230558317733E-02
    41 -.47354429189631E-03
    42 0.94520587512643E-05
    43 0.26702571058790E-03
    44 0.10833803438111E-03
    45 0.16938595460883E-02
    46 0.38027773479117E-02
    47 0.17024178921803E-02
    48 0.32531205207001E-04
    49 -.11899591343223E-02
    50 -.47642746221672E-03
    51 0.48880710172792E-04
    52 -.10360296546470E-03
    53 0.54722255291905E-04
    54 -.56806468100390E-04
    55 -.27787106984006E-04
    56 -.95992143083764E-04
    57 0.12030387869385E-02
    58 -.12287439506414E-02
    59 0.25705163702874E-04
    60 -.22417516510084E-03
    61 0.19433047398876E-04
    62 -.72036369619370E-03
    63 -.16145524582905E-04
    64 -.65461766983307E-05
    65 -.44828161713516E-04
    66 0.17678517438710E-04
    67 0.37390001475526E-04
    68 0.14395132587204E-04
    69 0.39829768611519E-05
    70 -.28607383821411E-04
    71 0.45748157551461E-04
    72 0.23461433421498E-04
    73 0.13819194876047E-04
    74 0.79872139865823E-03
    75 -.39733101711704E-03
    76 -.19248552534727E-04
    77 0.52611661408137E-05
    78 0.16709147803291E-04
    79 -.23393499318132E-03
    80 0.79398331151956E-04
    81 0.26194799280385E-03
    82 0.17778052642720E-04
    83 -.19494099189940E-04
    84 0.17160465472200E-05
    85 -.85279899875146E-05
    86 -.20020662837305E-04
    87 -.25869839924984E-05
    88 0.16314627998178E-04
    89 0.81592521462990E-03
    90 -.41345294298512E-03
    91 -.18011115931296E-04
    92 0.16261150570269E-04
    93 -.11757462881067E-04
    94 -.18254926544771E-03
    95 0.25066710959786E-03
    96 -.18649363564203E-03
    97 0.11576741240441E-04
    98 -.96823957518537E-05
    99 -.18943454885875E-05
   100 -.18953280587665E-04
   101 0.11947633657986E-04
   102 -.16185903267237E-04
   103 -.76873396237058E-04
   104 -.97190303807816E-03
   105 -.13969054676393E-03
   106 0.67929272233253E-04
   107 0.29320069717276E-05
   108 0.85155620499525E-05
   109 -.12505654614171E-03
   110 0.24482636988028E-03
   111 0.75296594341805E-04
   112 0.63135196844433E-05
   113 0.36542818006817E-05
   114 -.99678014851250E-05
   115 -.71863172402153E-05
   116 0.51506951510738E-07
   117 0.70574984062336E-05
   118 -.43440914055133E+00
   119 -.63992095873369E+00
   120 -.26235420833962E-01
   121 0.14946634408818E-01
   122 -.32726871509899E-02
   123 0.90630552679674E-03
   124 -.12070500050569E-02
   125 -.39316603048663E-03
   126 -.16220248839035E-02
   127 0.28711163567915E-02
   128 0.98927944398372E-03
   129 -.35342178016338E-03
   130 0.35640806598763E-03
   131 0.10729209825823E-03
   132 -.38354436432554E-04
   133 -.28109447397593E-04
   134 0.66463883830147E-04
   135 -.23910912141780E-04
   136 -.24523330582797E-04
   137 -.56526081458315E-04
   138 0.23125320061383E-04
   139 0.24621053425369E-03
   140 -.26933585431508E-03
   141 0.12836839390179E-03
   142 0.99674738959437E-04
   143 0.30613399814619E-03
   144 0.54032873351938E-05
   145 0.41229683187420E-05
   146 -.10466958785701E-04
   147 -.40644318927910E-05
   148 0.13271074446520E-06
   149 0.17313065299597E-05
   150 -.31848387772832E-05
   151 -.56642532023363E-05
   152 0.12311592287551E-04
   153 0.18018684756971E-05
   154 -.16085420927054E-04
   155 -.19677273526384E-04
   156 0.64194223695729E-04
   157 -.84241115897922E-03
   158 0.76982754917066E-03
   159 -.64615409698327E-04
   160 -.64446384122666E-04
   161 -.32560972850722E-04
   162 -.11930086511095E-04
   163 0.27653250617608E-03
   164 0.10971251478256E-03
   165 0.42508685993076E-03
   166 0.10424038477140E-03
   167 0.84932634223964E-04
   168 -.24632454660677E-04
   169 0.16074503119403E-06
   170 0.24471709629483E-04
   171 0.31569142561883E-05
   172 -.51129361273960E-05
   173 -.13328863837338E-04
   174 0.13992667635947E-03
   175 -.59463198082946E-04
   176 -.80463478276527E-04
   177 0.24091915522614E-04
   178 0.36688139438607E-04
   179 0.16399227264317E-04
   180 0.81325956286053E-05
   181 -.19152702014820E-05
   182 0.38824077498633E-05
   183 -.50449093507903E-05
   184 -.63176581165691E-06
   185 0.20100366534778E-05
   186 -.58661126446571E-05
   187 0.32013704311329E-05
   188 -.72188332405176E-05
   189 -.65029894497551E-06
   190 -.42235158969766E-03
   191 -.22042151299390E-02
   192 0.12027243979687E-02
   193 0.10882143518068E-03
   194 -.90874113195081E-05
   195 0.73826814723291E-05
   196 -.21092024822234E-02