[Molden Format]
[Title]
                                                                                
[Atoms] AU
 c     1    6 0.61952302629675E+01 0.17641148775839E+01 0.00000000000000E+00
 c     2    6 0.34557989389514E+01 0.10207071847563E+01 0.00000000000000E+00
 h     3    1 0.71236516330657E+01 0.96968288784099E+00 -.16616611549066E+01
 h     4    1 0.71236516330657E+01 0.96968288784099E+00 0.16616611549066E+01
 h     5    1 0.63694614128466E+01 0.38095343114715E+01 0.00000000000000E+00
 o     6    8 0.30989156238195E+01 -.14444782544432E+01 0.00000000000000E+00
 o     7    8 0.17341362532228E+01 0.25803009522201E+01 0.00000000000000E+00
 h     8    1 0.12316594922058E+01 -.18459838711231E+01 0.00000000000000E+00
 h     9    1 -.71236516330657E+01 -.96968288784099E+00 -.16616611549066E+01
 o    10    8 -.30989156238195E+01 0.14444782544432E+01 0.00000000000000E+00
 c    11    6 -.34557989389514E+01 -.10207071847563E+01 0.00000000000000E+00
 c    12    6 -.61952302629675E+01 -.17641148775839E+01 0.00000000000000E+00
 h    13    1 -.71236516330657E+01 -.96968288784099E+00 0.16616611549066E+01
 h    14    1 -.12316594922058E+01 0.18459838711231E+01 0.00000000000000E+00
 h    15    1 -.63694614128466E+01 -.38095343114715E+01 0.00000000000000E+00
 o    16    8 -.17341362532228E+01 -.25803009522201E+01 0.00000000000000E+00
[GTO]
    1 0
 s    6 1.00
 0.13575349682000E+05 0.60645503603591E-03
 0.20352333680000E+04 0.46979088884982E-02
 0.46322562359000E+03 0.24332477647552E-01
 0.13120019598000E+03 0.97399968307759E-01
 0.42853015891000E+02 0.30195584253780E+00
 0.15584185766000E+02 0.66233609137875E+00
 s    2 1.00
 0.62067138508000E+01 0.65595308539952E+00
 0.25764896527000E+01 0.37585633285142E+00
 s    1 1.00
 0.57696339419000E+00 0.10000000000000E+01
 s    1 1.00
 0.22972831358000E+00 0.10000000000000E+01
 s    1 1.00
 0.95164440028000E-01 0.10000000000000E+01
 p    4 1.00
 0.34697232244000E+02 0.11327220003114E-01
 0.79582622826000E+01 0.76169659202087E-01
 0.23780826883000E+01 0.30192252202676E+00
 0.81433208183000E+00 0.72785027349547E+00
 p    1 1.00
 0.28887547253000E+00 0.10000000000000E+01
 p    1 1.00
 0.10056823671000E+00 0.10000000000000E+01
 d    1 1.00
 0.10970000000000E+01 0.10000000000000E+01
 d    1 1.00
 0.31800000000000E+00 0.10000000000000E+01
 f    1 1.00
 0.76100000000000E+00 0.10000000000000E+01
 
    2 0
 s    6 1.00
 0.13575349682000E+05 0.60645503603591E-03
 0.20352333680000E+04 0.46979088884982E-02
 0.46322562359000E+03 0.24332477647552E-01
 0.13120019598000E+03 0.97399968307759E-01
 0.42853015891000E+02 0.30195584253780E+00
 0.15584185766000E+02 0.66233609137875E+00
 s    2 1.00
 0.62067138508000E+01 0.65595308539952E+00
 0.25764896527000E+01 0.37585633285142E+00
 s    1 1.00
 0.57696339419000E+00 0.10000000000000E+01
 s    1 1.00
 0.22972831358000E+00 0.10000000000000E+01
 s    1 1.00
 0.95164440028000E-01 0.10000000000000E+01
 p    4 1.00
 0.34697232244000E+02 0.11327220003114E-01
 0.79582622826000E+01 0.76169659202087E-01
 0.23780826883000E+01 0.30192252202676E+00
 0.81433208183000E+00 0.72785027349547E+00
 p    1 1.00
 0.28887547253000E+00 0.10000000000000E+01
 p    1 1.00
 0.10056823671000E+00 0.10000000000000E+01
 d    1 1.00
 0.10970000000000E+01 0.10000000000000E+01
 d    1 1.00
 0.31800000000000E+00 0.10000000000000E+01
 f    1 1.00
 0.76100000000000E+00 0.10000000000000E+01
 
    3 0
 s    3 1.00
 0.34061341000000E+02 0.25439307208879E-01
 0.51235746000000E+01 0.19008594890375E+00
 0.11646626000000E+01 0.85244113011042E+00
 s    1 1.00
 0.32723041000000E+00 0.10000000000000E+01
 s    1 1.00
 0.10307241000000E+00 0.10000000000000E+01
 p    1 1.00
 0.14070000000000E+01 0.10000000000000E+01
 p    1 1.00
 0.38800000000000E+00 0.10000000000000E+01
 d    1 1.00
 0.10570000000000E+01 0.10000000000000E+01
 
    4 0
 s    3 1.00
 0.34061341000000E+02 0.25439307208879E-01
 0.51235746000000E+01 0.19008594890375E+00
 0.11646626000000E+01 0.85244113011042E+00
 s    1 1.00
 0.32723041000000E+00 0.10000000000000E+01
 s    1 1.00
 0.10307241000000E+00 0.10000000000000E+01
 p    1 1.00
 0.14070000000000E+01 0.10000000000000E+01
 p    1 1.00
 0.38800000000000E+00 0.10000000000000E+01
 d    1 1.00
 0.10570000000000E+01 0.10000000000000E+01
 
    5 0
 s    3 1.00
 0.34061341000000E+02 0.25439307208879E-01
 0.51235746000000E+01 0.19008594890375E+00
 0.11646626000000E+01 0.85244113011042E+00
 s    1 1.00
 0.32723041000000E+00 0.10000000000000E+01
 s    1 1.00
 0.10307241000000E+00 0.10000000000000E+01
 p    1 1.00
 0.14070000000000E+01 0.10000000000000E+01
 p    1 1.00
 0.38800000000000E+00 0.10000000000000E+01
 d    1 1.00
 0.10570000000000E+01 0.10000000000000E+01
 
    6 0
 s    6 1.00
 0.27032382631000E+05 0.57227335211155E-03
 0.40523871392000E+04 0.44353233492995E-02
 0.92232722710000E+03 0.23020107706038E-01
 0.26124070989000E+03 0.92822490667928E-01
 0.85354641351000E+02 0.29378500009671E+00
 0.31035035245000E+02 0.67401604501641E+00
 s    2 1.00
 0.12260860728000E+02 0.63839937025506E+00
 0.49987076005000E+01 0.39534587125718E+00
 s    1 1.00
 0.11703108158000E+01 0.10000000000000E+01
 s    1 1.00
 0.46474740994000E+00 0.10000000000000E+01
 s    1 1.00
 0.18504536357000E+00 0.10000000000000E+01
 p    4 1.00
 0.63274954801000E+02 0.12018332222616E-01
 0.14627049379000E+02 0.83005421790056E-01
 0.44501223456000E+01 0.31991743925964E+00
 0.15275799647000E+01 0.70715542916104E+00
 p    1 1.00
 0.52935117943000E+00 0.10000000000000E+01
 p    1 1.00
 0.17478421270000E+00 0.10000000000000E+01
 d    1 1.00
 0.23140000000000E+01 0.10000000000000E+01
 d    1 1.00
 0.64500000000000E+00 0.10000000000000E+01
 f    1 1.00
 0.14280000000000E+01 0.10000000000000E+01
 
    7 0
 s    6 1.00
 0.27032382631000E+05 0.57227335211155E-03
 0.40523871392000E+04 0.44353233492995E-02
 0.92232722710000E+03 0.23020107706038E-01
 0.26124070989000E+03 0.92822490667928E-01
 0.85354641351000E+02 0.29378500009671E+00
 0.31035035245000E+02 0.67401604501641E+00
 s    2 1.00
 0.12260860728000E+02 0.63839937025506E+00
 0.49987076005000E+01 0.39534587125718E+00
 s    1 1.00
 0.11703108158000E+01 0.10000000000000E+01
 s    1 1.00
 0.46474740994000E+00 0.10000000000000E+01
 s    1 1.00
 0.18504536357000E+00 0.10000000000000E+01
 p    4 1.00
 0.63274954801000E+02 0.12018332222616E-01
 0.14627049379000E+02 0.83005421790056E-01
 0.44501223456000E+01 0.31991743925964E+00
 0.15275799647000E+01 0.70715542916104E+00
 p    1 1.00
 0.52935117943000E+00 0.10000000000000E+01
 p    1 1.00
 0.17478421270000E+00 0.10000000000000E+01
 d    1 1.00
 0.23140000000000E+01 0.10000000000000E+01
 d    1 1.00
 0.64500000000000E+00 0.10000000000000E+01
 f    1 1.00
 0.14280000000000E+01 0.10000000000000E+01
 
    8 0
 s    3 1.00
 0.34061341000000E+02 0.25439307208879E-01
 0.51235746000000E+01 0.19008594890375E+00
 0.11646626000000E+01 0.85244113011042E+00
 s    1 1.00
 0.32723041000000E+00 0.10000000000000E+01
 s    1 1.00
 0.10307241000000E+00 0.10000000000000E+01
 p    1 1.00
 0.14070000000000E+01 0.10000000000000E+01
 p    1 1.00
 0.38800000000000E+00 0.10000000000000E+01
 d    1 1.00
 0.10570000000000E+01 0.10000000000000E+01
 
    9 0
 s    3 1.00
 0.34061341000000E+02 0.25439307208879E-01
 0.51235746000000E+01 0.19008594890375E+00
 0.11646626000000E+01 0.85244113011042E+00
 s    1 1.00
 0.32723041000000E+00 0.10000000000000E+01
 s    1 1.00
 0.10307241000000E+00 0.10000000000000E+01
 p    1 1.00
 0.14070000000000E+01 0.10000000000000E+01
 p    1 1.00
 0.38800000000000E+00 0.10000000000000E+01
 d    1 1.00
 0.10570000000000E+01 0.10000000000000E+01
 
   10 0
 s    6 1.00
 0.27032382631000E+05 0.57227335211155E-03
 0.40523871392000E+04 0.44353233492995E-02
 0.92232722710000E+03 0.23020107706038E-01
 0.26124070989000E+03 0.92822490667928E-01
 0.85354641351000E+02 0.29378500009671E+00
 0.31035035245000E+02 0.67401604501641E+00
 s    2 1.00
 0.12260860728000E+02 0.63839937025506E+00
 0.49987076005000E+01 0.39534587125718E+00
 s    1 1.00
 0.11703108158000E+01 0.10000000000000E+01
 s    1 1.00
 0.46474740994000E+00 0.10000000000000E+01
 s    1 1.00
 0.18504536357000E+00 0.10000000000000E+01
 p    4 1.00
 0.63274954801000E+02 0.12018332222616E-01
 0.14627049379000E+02 0.83005421790056E-01
 0.44501223456000E+01 0.31991743925964E+00
 0.15275799647000E+01 0.70715542916104E+00
 p    1 1.00
 0.52935117943000E+00 0.10000000000000E+01
 p    1 1.00
 0.17478421270000E+00 0.10000000000000E+01
 d    1 1.00
 0.23140000000000E+01 0.10000000000000E+01
 d    1 1.00
 0.64500000000000E+00 0.10000000000000E+01
 f    1 1.00
 0.14280000000000E+01 0.10000000000000E+01
 
   11 0
 s    6 1.00
 0.13575349682000E+05 0.60645503603591E-03
 0.20352333680000E+04 0.46979088884982E-02
 0.46322562359000E+03 0.24332477647552E-01
 0.13120019598000E+03 0.97399968307759E-01
 0.42853015891000E+02 0.30195584253780E+00
 0.15584185766000E+02 0.66233609137875E+00
 s    2 1.00
 0.62067138508000E+01 0.65595308539952E+00
 0.25764896527000E+01 0.37585633285142E+00
 s    1 1.00
 0.57696339419000E+00 0.10000000000000E+01
 s    1 1.00
 0.22972831358000E+00 0.10000000000000E+01
 s    1 1.00
 0.95164440028000E-01 0.10000000000000E+01
 p    4 1.00
 0.34697232244000E+02 0.11327220003114E-01
 0.79582622826000E+01 0.76169659202087E-01
 0.23780826883000E+01 0.30192252202676E+00
 0.81433208183000E+00 0.72785027349547E+00
 p    1 1.00
 0.28887547253000E+00 0.10000000000000E+01
 p    1 1.00
 0.10056823671000E+00 0.10000000000000E+01
 d    1 1.00
 0.10970000000000E+01 0.10000000000000E+01
 d    1 1.00
 0.31800000000000E+00 0.10000000000000E+01
 f    1 1.00
 0.76100000000000E+00 0.10000000000000E+01
 
   12 0
 s    6 1.00
 0.13575349682000E+05 0.60645503603591E-03
 0.20352333680000E+04 0.46979088884982E-02
 0.46322562359000E+03 0.24332477647552E-01
 0.13120019598000E+03 0.97399968307759E-01
 0.42853015891000E+02 0.30195584253780E+00
 0.15584185766000E+02 0.66233609137875E+00
 s    2 1.00
 0.62067138508000E+01 0.65595308539952E+00
 0.25764896527000E+01 0.37585633285142E+00
 s    1 1.00
 0.57696339419000E+00 0.10000000000000E+01
 s    1 1.00
 0.22972831358000E+00 0.10000000000000E+01
 s    1 1.00
 0.95164440028000E-01 0.10000000000000E+01
 p    4 1.00
 0.34697232244000E+02 0.11327220003114E-01
 0.79582622826000E+01 0.76169659202087E-01
 0.23780826883000E+01 0.30192252202676E+00
 0.81433208183000E+00 0.72785027349547E+00
 p    1 1.00
 0.28887547253000E+00 0.10000000000000E+01
 p    1 1.00
 0.10056823671000E+00 0.10000000000000E+01
 d    1 1.00
 0.10970000000000E+01 0.10000000000000E+01
 d    1 1.00
 0.31800000000000E+00 0.10000000000000E+01
 f    1 1.00
 0.76100000000000E+00 0.10000000000000E+01
 
   13 0
 s    3 1.00
 0.34061341000000E+02 0.25439307208879E-01
 0.51235746000000E+01 0.19008594890375E+00
 0.11646626000000E+01 0.85244113011042E+00
 s    1 1.00
 0.32723041000000E+00 0.10000000000000E+01
 s    1 1.00
 0.10307241000000E+00 0.10000000000000E+01
 p    1 1.00
 0.14070000000000E+01 0.10000000000000E+01
 p    1 1.00
 0.38800000000000E+00 0.10000000000000E+01
 d    1 1.00
 0.10570000000000E+01 0.10000000000000E+01
 
   14 0
 s    3 1.00
 0.34061341000000E+02 0.25439307208879E-01
 0.51235746000000E+01 0.19008594890375E+00
 0.11646626000000E+01 0.85244113011042E+00
 s    1 1.00
 0.32723041000000E+00 0.10000000000000E+01
 s    1 1.00
 0.10307241000000E+00 0.10000000000000E+01
 p    1 1.00
 0.14070000000000E+01 0.10000000000000E+01
 p    1 1.00
 0.38800000000000E+00 0.10000000000000E+01
 d    1 1.00
 0.10570000000000E+01 0.10000000000000E+01
 
   15 0
 s    3 1.00
 0.34061341000000E+02 0.25439307208879E-01
 0.51235746000000E+01 0.19008594890375E+00
 0.11646626000000E+01 0.85244113011042E+00
 s    1 1.00
 0.32723041000000E+00 0.10000000000000E+01
 s    1 1.00
 0.10307241000000E+00 0.10000000000000E+01
 p    1 1.00
 0.14070000000000E+01 0.10000000000000E+01
 p    1 1.00
 0.38800000000000E+00 0.10000000000000E+01
 d    1 1.00
 0.10570000000000E+01 0.10000000000000E+01
 
   16 0
 s    6 1.00
 0.27032382631000E+05 0.57227335211155E-03
 0.40523871392000E+04 0.44353233492995E-02
 0.92232722710000E+03 0.23020107706038E-01
 0.26124070989000E+03 0.92822490667928E-01
 0.85354641351000E+02 0.29378500009671E+00
 0.31035035245000E+02 0.67401604501641E+00
 s    2 1.00
 0.12260860728000E+02 0.63839937025506E+00
 0.49987076005000E+01 0.39534587125718E+00
 s    1 1.00
 0.11703108158000E+01 0.10000000000000E+01
 s    1 1.00
 0.46474740994000E+00 0.10000000000000E+01
 s    1 1.00
 0.18504536357000E+00 0.10000000000000E+01
 p    4 1.00
 0.63274954801000E+02 0.12018332222616E-01
 0.14627049379000E+02 0.83005421790056E-01
 0.44501223456000E+01 0.31991743925964E+00
 0.15275799647000E+01 0.70715542916104E+00
 p    1 1.00
 0.52935117943000E+00 0.10000000000000E+01
 p    1 1.00
 0.17478421270000E+00 0.10000000000000E+01
 d    1 1.00
 0.23140000000000E+01 0.10000000000000E+01
 d    1 1.00
 0.64500000000000E+00 0.10000000000000E+01
 f    1 1.00
 0.14280000000000E+01 0.10000000000000E+01
 
[MO]
 Sym=     1a   
 Ene= -.18784633564664E+02
 Spin= Alpha
 Occup= 2.000000
     1 0.15588798430489E-04
     2 -.42488460455304E-05
     3 -.14558821877748E-03
     4 0.22903158805495E-02
     5 -.11767269631098E-02
     6 0.32577865101668E-04
     7 0.51026927816038E-04
     8 -.27336716682396E-14
     9 -.64025961180306E-03
    10 -.10549662202803E-02
    11 -.27325812908132E-13
    12 0.12532708349141E-03
    13 -.54424988124783E-04
    14 0.64959335762431E-14
    15 0.13594487348498E-04
    16 0.34444311919604E-05
    17 -.17038918540459E-04
    18 0.18616036196306E-05
    19 0.17084632363277E-14
    20 0.21626743672414E-14
    21 0.19238377987912E-03
    22 -.37760644740761E-03
    23 0.18522266752849E-03
    24 0.13691072273132E-04
    25 -.10624773014611E-14
    26 -.54824123261028E-14
    27 -.24118524058459E-04
    28 0.58616064046677E-05
    29 -.27795417502233E-14
    30 0.23893134527034E-04
    31 0.44226176831210E-05
    32 0.24487938183091E-14
    33 0.84652610599731E-05
    34 -.12286787910032E-04
    35 0.12803527615697E-14
    36 -.12322674200956E-14
    37 -.43779367884876E-05
    38 -.12432518314827E-03
    39 0.10556872522834E-03
    40 0.12884670883472E-02
    41 0.49301946785349E-03
    42 -.34933497172180E-04
    43 -.18845304541606E-03
    44 -.16675131549308E-14
    45 -.12055610043783E-02
    46 -.29968142513743E-02
    47 0.20164267070453E-14
    48 -.43644689391697E-03
    49 0.85003132759738E-03
    50 0.14876878902714E-13
    51 -.29994835131072E-04
    52 0.94309436925748E-04
    53 -.64314601794676E-04
    54 0.42476013086847E-04
    55 -.33628895630917E-15
    56 -.18005821676915E-14
    57 -.84944039843702E-03
    58 0.10713885763569E-02
    59 -.22194817791985E-03
    60 0.13144629367085E-03
    61 -.54594823592532E-14
    62 0.34189707342892E-14
    63 0.10464812980732E-04
    64 -.22054386888138E-04
    65 0.30464725620757E-15
    66 -.20319553330258E-04
    67 -.20323360248067E-04
    68 -.75693537080650E-15
    69 0.62795334122154E-05
    70 0.49912425218441E-04
    71 0.34820818638315E-15
    72 -.45766447911320E-16
    73 -.79495982658719E-05
    74 -.63483170678967E-03
    75 0.27182470700595E-03
    76 0.15234699249879E-04
    77 -.67992058706405E-05
    78 -.10023799297837E-04
    79 0.15343151602608E-03
    80 -.13547926209678E-03
    81 -.19648898149030E-03
    82 -.10436134051056E-04
    83 0.13277706542109E-04
    84 -.28415724910524E-05
    85 0.11436498506779E-04
    86 0.12137442165733E-04
    87 -.62278528102768E-05
    88 -.79495982774404E-05
    89 -.63483170676417E-03
    90 0.27182470699183E-03
    91 0.15234699244174E-04
    92 -.67992058698402E-05
    93 0.10023799299739E-04
    94 0.15343151601211E-03
    95 -.13547926207734E-03
    96 0.19648898149240E-03
    97 -.10436134045385E-04
    98 0.13277706542735E-04
    99 -.28415724973499E-05
   100 0.11436498499504E-04
   101 -.12137442161545E-04
   102 0.62278528092139E-05
   103 0.49945145221496E-04
   104 0.71131925146180E-03
   105 0.10484578374004E-03
   106 -.41913786985361E-04
   107 -.37200604968492E-05
   108 -.56127507573023E-14
   109 0.73187798582401E-04
   110 -.18945904797011E-03
   111 0.12098287410467E-13
   112 -.27648779772831E-05
   113 -.44239914905382E-05
   114 0.71888694678212E-05
   115 0.43672988469616E-05
   116 0.24656332457179E-15
   117 -.58743467928399E-15
   118 0.30783048681326E+00
   119 0.45345784925328E+00
   120 0.18624157218927E-01
   121 -.10704867654257E-01
   122 0.22348906248589E-02
   123 -.64562055549568E-03
   124 0.90358952094382E-03
   125 -.37038756298999E-14
   126 0.11590047092190E-02
   127 -.21726184534812E-02
   128 0.64344965613158E-15
   129 0.27088625048801E-03
   130 -.37300423735531E-03
   131 0.29322674510529E-14
   132 0.27386010212591E-04
   133 0.35300487853068E-04
   134 -.62686498065659E-04
   135 0.21561146823350E-04
   136 -.24013838077264E-14
   137 -.25501794367392E-14
   138 -.26494382491003E-04
   139 -.26015619363206E-03
   140 0.28665057612307E-03
   141 -.12462963987093E-03
   142 -.20905222401068E-14
   143 0.11684222186777E-14
   144 -.24721224027972E-05
   145 -.81810785253215E-05
   146 0.24160480558439E-15
   147 0.38943338155079E-06
   148 0.58731458254773E-06
   149 0.54938088929822E-15
   150 0.29272668632620E-05
   151 0.10388754044582E-04
   152 -.87352775068461E-15
   153 0.41356264780897E-15
   154 -.54885037838165E-04
   155 -.55456749981434E-04
   156 -.21537451016942E-03
   157 0.70422100059417E-03
   158 -.31762687770002E-03
   159 0.16480528599689E-03
   160 0.85446470576826E-04
   161 -.11005790525776E-14
   162 -.20243085827176E-03
   163 -.24184122215583E-03
   164 -.81591983959598E-15
   165 -.61007524927636E-03
   166 -.59696985936224E-04
   167 -.14921865340662E-13
   168 -.86631067923441E-05
   169 0.15448072775528E-04
   170 -.67849659831839E-05
   171 -.14946120636532E-04
   172 -.55676675020221E-15
   173 0.13850675844780E-14
   174 0.26173373040270E-04
   175 -.27501414751764E-04
   176 0.13280417114939E-05
   177 0.38923569948567E-04
   178 -.40246596919955E-14
   179 -.78243835688712E-15
   180 -.12248069427270E-04
   181 0.82813877049483E-05
   182 -.36858154377216E-15
   183 0.58389040110595E-05
   184 -.71849297881549E-05
   185 -.13624022862180E-15
   186 0.10593605488447E-04
   187 -.39257177256224E-05
   188 0.63074426089762E-15
   189 -.69426566074710E-15
   190 0.29408097312095E-03
   191 0.16345490866171E-02
   192 -.11797824434150E-02
   193 -.72487855152796E-04
   194 0.73696727860142E-05
   195 -.11624729285198E-14
   196 0.15471434890808E-02
   197 0.40552754963938E-03
   198 -.50129104129029E-14
   199 -.49710604285015E-04
   200 0.29560528600979E-04
   201 0.20150075684036E-04
   202 0.53631354951009E-05
   203 -.14293074224712E-16
   204 0.92966742004661E-15
   205 -.79496030584329E-05
   206 -.63483189023543E-03
   207 0.27182481335341E-03
   208 -.15234703512428E-04
   209 0.67992088550023E-05
   210 -.10023803352745E-04
   211 -.15343156700516E-03
   212 0.13547929880474E-03
   213 -.19648903408809E-03
   214 -.10436137811619E-04
   215 0.13277711030840E-04
   216 -.28415732192206E-05
   217 0.11436501747230E-04
   218 -.12137446413186E-04
   219 0.62278544839783E-05
   220 0.30783059687877E+00
   221 0.45345801138980E+00
   222 0.18624163854272E-01
   223 -.10704871401546E-01
   224 0.22348914826664E-02
   225 0.64562078403248E-03
   226 -.90358984191814E-03
   227 0.24241568156738E-15
   228 -.11590051156666E-02
   229 0.21726192184640E-02
   230 -.29662814119724E-14
   231 -.27088633147550E-03
   232 0.37300429850882E-03
   233 0.37517522691471E-15
   234 0.27386020371244E-04
   235 0.35300499951903E-04
   236 -.62686520323147E-04
   237 0.21561154778406E-04
   238 -.38636912636518E-15
   239 -.16410830455710E-14
   240 -.26494387160235E-04
   241 -.26015628197009E-03
   242 0.28665066913032E-03
   243 -.12462967535557E-03
   244 0.21181782692314E-14
   245 0.25619382713998E-14
   246 0.24721242748050E-05
   247 0.81810807221672E-05
   248 -.18839216423531E-15
   249 -.38943462335808E-06
   250 -.58731402089568E-06
   251 0.19285924159670E-15
   252 -.29272681330167E-05
   253 -.10388757553612E-04
   254 0.59895369798368E-16
   255 0.20397054198955E-15
   256 -.43779379212310E-05
   257 -.12432522189310E-03
   258 0.10556876323065E-03
   259 0.12884674059290E-02
   260 0.49301953574905E-03
   261 0.34933490991242E-04
   262 0.18845312325371E-03
   263 -.49799538078602E-14
   264 0.12055614413631E-02
   265 0.29968152903927E-02
   266 0.48659706270767E-14
   267 0.43644677482722E-03
   268 -.85003166948048E-03
   269 0.78703921145525E-14
   270 -.29994848585517E-04
   271 0.94309473354883E-04
   272 -.64314624769366E-04
   273 0.42476030214658E-04
   274 0.15720955678230E-14
   275 0.72751665254363E-15
   276 -.84944070780423E-03
   277 0.10713889462463E-02
   278 -.22194823844205E-03
   279 0.13144635130887E-03
   280 -.80574122569265E-14
   281 0.24174345420308E-14
   282 -.10464817283222E-04
   283 0.22054388081196E-04
   284 -.29124120695741E-15
   285 0.20319561149960E-04
   286 0.20323373391988E-04
   287 0.63145807279524E-15
   288 -.62795354595209E-05
   289 -.49912439963017E-04
   290 -.24071699083173E-15
   291 -.61010331735303E-16
   292 0.15588803633603E-04
   293 -.42488508553695E-05
   294 -.14558825256638E-03
   295 0.22903166281711E-02
   296 -.11767275693093E-02
   297 -.32577868228984E-04
   298 -.51026948522483E-04
   299 0.52692550262905E-15
   300 0.64025988481531E-03
   301 0.10549665834377E-02
   302 -.70501150824439E-13
   303 -.12532717257111E-03
   304 0.54424984101175E-04
   305 -.53682992486739E-14
   306 0.13594494047029E-04
   307 0.34444315987780E-05
   308 -.17038925645807E-04
   309 0.18616040141671E-05
   310 0.31157073586034E-14
   311 -.31771786797593E-15
   312 0.19238385131261E-03
   313 -.37760657327360E-03
   314 0.18522272196100E-03
   315 0.13691090508669E-04
   316 0.70701286485368E-14
   317 -.10413216057831E-13
   318 0.24118532922729E-04
   319 -.58616086113072E-05
   320 -.93420552894710E-15
   321 -.23893143695069E-04
   322 -.44226183431808E-05
   323 0.78183240471926E-15
   324 -.84652637846046E-05
   325 0.12286791530609E-04
   326 0.47153583588986E-15
   327 0.15166974102736E-14
   328 -.79496030538419E-05
   329 -.63483189012201E-03
   330 0.27182481333477E-03
   331 -.15234703502910E-04
   332 0.67992088550586E-05
   333 0.10023803332469E-04
   334 -.15343156699129E-03
   335 0.13547929877988E-03
   336 0.19648903408037E-03
   337 -.10436137807831E-04
   338 0.13277711031707E-04
   339 -.28415732238762E-05
   340 0.11436501745262E-04
   341 0.12137446414672E-04
   342 -.62278544821515E-05
   343 0.29408108164417E-03
   344 0.16345496198958E-02
   345 -.11797826488816E-02
   346 0.72487884002949E-04
   347 -.73696734278631E-05
   348 0.10624768945074E-14
   349 -.15471440093414E-02
   350 -.40552768760666E-03
   351 0.16773803759575E-15
   352 -.49710632641455E-04
   353 0.29560544907122E-04
   354 0.20150087734333E-04
   355 0.53631373481993E-05
   356 0.21635824159541E-14
   357 0.66423521673832E-15
   358 0.49945166020444E-04
   359 0.71131949335529E-03
   360 0.10484581733906E-03
   361 0.41913806293492E-04
   362 0.37200620521705E-05
   363 -.40541461864155E-14
   364 -.73187835368969E-04
   365 0.18945911122319E-03
   366 0.14746489229787E-14
   367 -.27648802601460E-05
   368 -.44239929003746E-05
   369 0.71888731605206E-05
   370 0.43673006305977E-05
   371 0.18557076333958E-14
   372 0.57507846025360E-15
   373 -.54885013918601E-04
   374 -.55456724606933E-04
   375 -.21537447338120E-03
   376 0.70422118245007E-03
   377 -.31762714630092E-03
   378 -.16480526516032E-03
   379 -.85446477820899E-04
   380 -.53055733571555E-15
   381 0.20243078841042E-03
   382 0.24184128688797E-03
   383 0.21670657307727E-14
   384 0.61007526050371E-03
   385 0.59697026926291E-04
   386 0.64106048093224E-14
   387 -.86630921736222E-05
   388 0.15448070134411E-04
   389 -.67849779607886E-05
   390 -.14946116426292E-04
   391 -.26584289959918E-15
   392 0.64472192867506E-15
   393 0.26173297769324E-04
   394 -.27501381798772E-04
   395 0.13280840294487E-05
   396 0.38923540539613E-04
   397 -.22082813284862E-14
   398 0.26807436303351E-14
   399 0.12248069541231E-04
   400 -.82813878257694E-05
   401 0.14634487254142E-15
   402 -.58389048046551E-05
   403 0.71849276336666E-05
   404 0.69309615258408E-15
   405 -.10593604847748E-04
   406 0.39257200422091E-05
   407 -.88943840248078E-15
   408 -.74599652297959E-15
 Sym=     2a   
 Ene= -.18784631721652E+02
 Spin= Alpha
 Occup= 2.000000
     1 -.14555148973159E-04
     2 0.13439099703783E-04
     3 0.94695570439614E-04
     4 -.20905817512142E-02
     5 0.16916770759262E-02
     6 -.89704480234413E-05
     7 -.58077003233319E-04
     8 0.39400008800178E-14
     9 0.76653062967461E-03
    10 0.10159872992753E-02
    11 0.50027294233517E-13
    12 -.24768484720547E-03
    13 -.11143632672829E-04
    14 -.56388819540196E-14
    15 -.18751143910251E-04
    16 -.11335499042247E-05
    17 0.19884693814475E-04
    18 -.10585953183165E-05
    19 0.12527141355294E-14
    20 -.32871983044115E-14
    21 -.20017364559117E-03
    22 0.35190644644053E-03
    23 -.15173280084935E-03
    24 -.51746354657198E-04
    25 0.10162218959623E-13
    26 -.81539584169290E-14
    27 0.24788073407402E-04
    28 -.61665418569486E-05
    29 0.19130298141435E-14
    30 -.25663085231075E-04
    31 -.18206315178299E-05
    32 -.18727261831031E-14
    33 -.75936050710489E-05
    34 0.10093915584771E-04
    35 -.69387264134212E-15
    36 -.10896935897642E-14
    37 0.31578244644400E-05
    38 0.10832499117213E-03
    39 -.10695262010463E-03
    40 -.88381111740500E-03
    41 -.18677043863026E-03
    42 -.17304130486842E-04
    43 0.21759669637141E-03
    44 0.20914200030857E-14
    45 0.12230746886895E-02
    46 0.29065200585142E-02
    47 0.31711933522543E-14
    48 -.33100853805892E-03
    49 -.95567211748164E-03
    50 0.10927624069702E-13
    51 0.37607327105989E-04
    52 -.10182383234777E-03
    53 0.64216505241782E-04
    54 -.47832678474392E-04
    55 0.26533814747829E-14
    56 -.29407939416283E-15
    57 0.86590152294941E-03
    58 -.10347585253808E-02
    59 0.16885700243137E-03
    60 -.16160627215978E-03
    61 0.21849836598539E-14
    62 -.37329206673402E-15
    63 -.11994868913377E-04
    64 0.33246126356738E-05
    65 -.33945464003885E-15
    66 0.21834196956500E-04
    67 0.36790592670689E-04
    68 0.98828899876488E-15
    69 -.57413915935935E-05
    70 -.41251028582022E-04
    71 -.53286280852212E-15
    72 0.69607198961276E-15
    73 0.13313541434140E-04
    74 0.51149928396425E-03
    75 -.29746314332905E-03
    76 -.11810136665867E-04
    77 0.82924047787081E-05
    78 0.11313727823392E-04
    79 -.14256363657426E-03
    80 0.10235698223794E-03
    81 0.14645737054822E-03
    82 0.10553634477769E-04
    83 -.12560103391561E-04
    84 0.20064689137929E-05
    85 -.90267424147200E-05
    86 -.11898313378930E-04
    87 0.46564605813515E-05
    88 0.13313541435098E-04
    89 0.51149928388566E-03
    90 -.29746314335646E-03
    91 -.11810136654946E-04
    92 0.82924047767318E-05
    93 -.11313727821774E-04
    94 -.14256363655067E-03
    95 0.10235698221606E-03
    96 -.14645737051042E-03
    97 0.10553634476756E-04
    98 -.12560103390769E-04
    99 0.20064689140125E-05
   100 -.90267424123020E-05
   101 0.11898313374305E-04
   102 -.46564605799442E-05
   103 -.58059496784312E-04
   104 -.67657231564177E-03
   105 -.93583768644323E-04
   106 0.53977160349578E-04
   107 0.45067884014752E-05
   108 -.35999922889177E-14
   109 -.10272846063463E-03
   110 0.17681455376856E-03
   111 0.47535311101037E-14
   112 0.63766022659218E-05
   113 0.39934339108194E-05
   114 -.10370036176741E-04
   115 -.50066200273230E-05
   116 0.51969994507644E-15
   117 -.16201973103221E-14
   118 -.30783302752354E+00
   119 -.45346587097584E+00
   120 -.18558033796155E-01
   121 0.10481441997260E-01
   122 -.23989482938879E-02
   123 0.63919006661033E-03
   124 -.89766788220874E-03
   125 -.10441015423270E-14
   126 -.11375342285316E-02
   127 0.21392699155709E-02
   128 0.46009452769014E-14
   129 -.22713859117092E-03
   130 0.17075249431187E-03
   131 -.97704578917088E-14
   132 -.28427346848909E-04
   133 -.33818505357804E-04
   134 0.62245852206713E-04
   135 -.22244036314630E-04
   136 0.22955296325001E-15
   137 -.14044675078348E-14
   138 0.13250850930570E-04
   139 0.24689259509504E-03
   140 -.26014344602561E-03
   141 0.99223249691702E-04
   142 0.60566482098533E-15
   143 0.47021291287545E-15
   144 0.52189448632581E-05
   145 0.61488987208842E-05
   146 -.84902240892745E-15
   147 -.34537892863881E-05
   148 0.15717743349012E-05
   149 0.41065755756374E-15
   150 -.35481600046530E-05
   151 -.98213876508963E-05
   152 0.72842553490570E-15
   153 0.42251910516655E-16
   154 -.69292748289050E-04
   155 -.74496869007876E-04
   156 -.10297447104656E-03
   157 -.50937331272005E-03
   158 0.75032350476950E-03
   159 0.58288943761770E-04
   160 -.20273050058286E-04
   161 -.14394750903554E-14
   162 -.19585034714771E-03
   163 0.18140645754034E-03
   164 0.22884100215742E-14
   165 0.31001156543913E-04
   166 0.11505482315556E-03
   167 -.44580213651513E-14
   168 -.40877726444438E-04
   169 0.73702329198454E-05
   170 0.33507493524592E-04
   171 -.11774233056053E-04
   172 0.65137549506938E-15
   173 0.73734532139388E-15
   174 0.21057879927234E-03
   175 -.92232891801682E-04
   176 -.11834590747066E-03
   177 0.82303629781819E-04
   178 -.31078258619788E-15
   179 0.34876119684481E-14
   180 0.30835085603260E-06
   181 -.32965898857391E-06
   182 0.84581218148237E-16
   183 -.22143382370841E-05
   184 -.60263772338598E-05
   185 0.56985785197088E-15
   186 0.18006421520786E-05
   187 0.64686611785669E-05
   188 -.68333546401040E-15
   189 0.74789837829359E-15
   190 -.30347517860459E-03
   191 -.14926665878133E-02
   192 0.57440808340622E-03
   193 0.80581238960850E-04
   194 -.18100317607694E-05
   195 -.16106056315489E-14
   196 -.14559039637653E-02