[Molden Format]
[Title]
                                                                                
[Atoms] AU
 c     1    6 0.61901633913732E+01 0.17655278287245E+01 0.00000000000000E+00
 c     2    6 0.34471205192468E+01 0.10207771734029E+01 0.00000000000000E+00
 h     3    1 0.71322071115931E+01 0.96723109398734E+00 -.16680083012301E+01
 h     4    1 0.71322071115931E+01 0.96723109398734E+00 0.16680083012301E+01
 h     5    1 0.63686050537681E+01 0.38235119000401E+01 0.00000000000000E+00
 o     6    8 0.30811466529307E+01 -.14508556308692E+01 0.00000000000000E+00
 o     7    8 0.17246410371305E+01 0.26054732966134E+01 0.00000000000000E+00
 h     8    1 0.11837242662092E+01 -.18474200523008E+01 0.00000000000000E+00
 h     9    1 -.71322071115931E+01 -.96723109398734E+00 -.16680083012301E+01
 o    10    8 -.30811466529307E+01 0.14508556308692E+01 0.00000000000000E+00
 c    11    6 -.34471205192468E+01 -.10207771734029E+01 0.00000000000000E+00
 c    12    6 -.61901633913732E+01 -.17655278287245E+01 0.00000000000000E+00
 h    13    1 -.71322071115931E+01 -.96723109398734E+00 0.16680083012301E+01
 h    14    1 -.11837242662092E+01 0.18474200523008E+01 0.00000000000000E+00
 h    15    1 -.63686050537681E+01 -.38235119000401E+01 0.00000000000000E+00
 o    16    8 -.17246410371305E+01 -.26054732966134E+01 0.00000000000000E+00
[GTO]
    1 0
 s    6 1.00
 0.13575349682000E+05 0.60645503603591E-03
 0.20352333680000E+04 0.46979088884982E-02
 0.46322562359000E+03 0.24332477647552E-01
 0.13120019598000E+03 0.97399968307759E-01
 0.42853015891000E+02 0.30195584253780E+00
 0.15584185766000E+02 0.66233609137875E+00
 s    2 1.00
 0.62067138508000E+01 0.65595308539952E+00
 0.25764896527000E+01 0.37585633285142E+00
 s    1 1.00
 0.57696339419000E+00 0.10000000000000E+01
 s    1 1.00
 0.22972831358000E+00 0.10000000000000E+01
 s    1 1.00
 0.95164440028000E-01 0.10000000000000E+01
 p    4 1.00
 0.34697232244000E+02 0.11327220003114E-01
 0.79582622826000E+01 0.76169659202087E-01
 0.23780826883000E+01 0.30192252202676E+00
 0.81433208183000E+00 0.72785027349547E+00
 p    1 1.00
 0.28887547253000E+00 0.10000000000000E+01
 p    1 1.00
 0.10056823671000E+00 0.10000000000000E+01
 d    1 1.00
 0.10970000000000E+01 0.10000000000000E+01
 d    1 1.00
 0.31800000000000E+00 0.10000000000000E+01
 f    1 1.00
 0.76100000000000E+00 0.10000000000000E+01
 
    2 0
 s    6 1.00
 0.13575349682000E+05 0.60645503603591E-03
 0.20352333680000E+04 0.46979088884982E-02
 0.46322562359000E+03 0.24332477647552E-01
 0.13120019598000E+03 0.97399968307759E-01
 0.42853015891000E+02 0.30195584253780E+00
 0.15584185766000E+02 0.66233609137875E+00
 s    2 1.00
 0.62067138508000E+01 0.65595308539952E+00
 0.25764896527000E+01 0.37585633285142E+00
 s    1 1.00
 0.57696339419000E+00 0.10000000000000E+01
 s    1 1.00
 0.22972831358000E+00 0.10000000000000E+01
 s    1 1.00
 0.95164440028000E-01 0.10000000000000E+01
 p    4 1.00
 0.34697232244000E+02 0.11327220003114E-01
 0.79582622826000E+01 0.76169659202087E-01
 0.23780826883000E+01 0.30192252202676E+00
 0.81433208183000E+00 0.72785027349547E+00
 p    1 1.00
 0.28887547253000E+00 0.10000000000000E+01
 p    1 1.00
 0.10056823671000E+00 0.10000000000000E+01
 d    1 1.00
 0.10970000000000E+01 0.10000000000000E+01
 d    1 1.00
 0.31800000000000E+00 0.10000000000000E+01
 f    1 1.00
 0.76100000000000E+00 0.10000000000000E+01
 
    3 0
 s    3 1.00
 0.34061341000000E+02 0.25439307208879E-01
 0.51235746000000E+01 0.19008594890375E+00
 0.11646626000000E+01 0.85244113011042E+00
 s    1 1.00
 0.32723041000000E+00 0.10000000000000E+01
 s    1 1.00
 0.10307241000000E+00 0.10000000000000E+01
 p    1 1.00
 0.14070000000000E+01 0.10000000000000E+01
 p    1 1.00
 0.38800000000000E+00 0.10000000000000E+01
 d    1 1.00
 0.10570000000000E+01 0.10000000000000E+01
 
    4 0
 s    3 1.00
 0.34061341000000E+02 0.25439307208879E-01
 0.51235746000000E+01 0.19008594890375E+00
 0.11646626000000E+01 0.85244113011042E+00
 s    1 1.00
 0.32723041000000E+00 0.10000000000000E+01
 s    1 1.00
 0.10307241000000E+00 0.10000000000000E+01
 p    1 1.00
 0.14070000000000E+01 0.10000000000000E+01
 p    1 1.00
 0.38800000000000E+00 0.10000000000000E+01
 d    1 1.00
 0.10570000000000E+01 0.10000000000000E+01
 
    5 0
 s    3 1.00
 0.34061341000000E+02 0.25439307208879E-01
 0.51235746000000E+01 0.19008594890375E+00
 0.11646626000000E+01 0.85244113011042E+00
 s    1 1.00
 0.32723041000000E+00 0.10000000000000E+01
 s    1 1.00
 0.10307241000000E+00 0.10000000000000E+01
 p    1 1.00
 0.14070000000000E+01 0.10000000000000E+01
 p    1 1.00
 0.38800000000000E+00 0.10000000000000E+01
 d    1 1.00
 0.10570000000000E+01 0.10000000000000E+01
 
    6 0
 s    6 1.00
 0.27032382631000E+05 0.57227335211155E-03
 0.40523871392000E+04 0.44353233492995E-02
 0.92232722710000E+03 0.23020107706038E-01
 0.26124070989000E+03 0.92822490667928E-01
 0.85354641351000E+02 0.29378500009671E+00
 0.31035035245000E+02 0.67401604501641E+00
 s    2 1.00
 0.12260860728000E+02 0.63839937025506E+00
 0.49987076005000E+01 0.39534587125718E+00
 s    1 1.00
 0.11703108158000E+01 0.10000000000000E+01
 s    1 1.00
 0.46474740994000E+00 0.10000000000000E+01
 s    1 1.00
 0.18504536357000E+00 0.10000000000000E+01
 p    4 1.00
 0.63274954801000E+02 0.12018332222616E-01
 0.14627049379000E+02 0.83005421790056E-01
 0.44501223456000E+01 0.31991743925964E+00
 0.15275799647000E+01 0.70715542916104E+00
 p    1 1.00
 0.52935117943000E+00 0.10000000000000E+01
 p    1 1.00
 0.17478421270000E+00 0.10000000000000E+01
 d    1 1.00
 0.23140000000000E+01 0.10000000000000E+01
 d    1 1.00
 0.64500000000000E+00 0.10000000000000E+01
 f    1 1.00
 0.14280000000000E+01 0.10000000000000E+01
 
    7 0
 s    6 1.00
 0.27032382631000E+05 0.57227335211155E-03
 0.40523871392000E+04 0.44353233492995E-02
 0.92232722710000E+03 0.23020107706038E-01
 0.26124070989000E+03 0.92822490667928E-01
 0.85354641351000E+02 0.29378500009671E+00
 0.31035035245000E+02 0.67401604501641E+00
 s    2 1.00
 0.12260860728000E+02 0.63839937025506E+00
 0.49987076005000E+01 0.39534587125718E+00
 s    1 1.00
 0.11703108158000E+01 0.10000000000000E+01
 s    1 1.00
 0.46474740994000E+00 0.10000000000000E+01
 s    1 1.00
 0.18504536357000E+00 0.10000000000000E+01
 p    4 1.00
 0.63274954801000E+02 0.12018332222616E-01
 0.14627049379000E+02 0.83005421790056E-01
 0.44501223456000E+01 0.31991743925964E+00
 0.15275799647000E+01 0.70715542916104E+00
 p    1 1.00
 0.52935117943000E+00 0.10000000000000E+01
 p    1 1.00
 0.17478421270000E+00 0.10000000000000E+01
 d    1 1.00
 0.23140000000000E+01 0.10000000000000E+01
 d    1 1.00
 0.64500000000000E+00 0.10000000000000E+01
 f    1 1.00
 0.14280000000000E+01 0.10000000000000E+01
 
    8 0
 s    3 1.00
 0.34061341000000E+02 0.25439307208879E-01
 0.51235746000000E+01 0.19008594890375E+00
 0.11646626000000E+01 0.85244113011042E+00
 s    1 1.00
 0.32723041000000E+00 0.10000000000000E+01
 s    1 1.00
 0.10307241000000E+00 0.10000000000000E+01
 p    1 1.00
 0.14070000000000E+01 0.10000000000000E+01
 p    1 1.00
 0.38800000000000E+00 0.10000000000000E+01
 d    1 1.00
 0.10570000000000E+01 0.10000000000000E+01
 
    9 0
 s    3 1.00
 0.34061341000000E+02 0.25439307208879E-01
 0.51235746000000E+01 0.19008594890375E+00
 0.11646626000000E+01 0.85244113011042E+00
 s    1 1.00
 0.32723041000000E+00 0.10000000000000E+01
 s    1 1.00
 0.10307241000000E+00 0.10000000000000E+01
 p    1 1.00
 0.14070000000000E+01 0.10000000000000E+01
 p    1 1.00
 0.38800000000000E+00 0.10000000000000E+01
 d    1 1.00
 0.10570000000000E+01 0.10000000000000E+01
 
   10 0
 s    6 1.00
 0.27032382631000E+05 0.57227335211155E-03
 0.40523871392000E+04 0.44353233492995E-02
 0.92232722710000E+03 0.23020107706038E-01
 0.26124070989000E+03 0.92822490667928E-01
 0.85354641351000E+02 0.29378500009671E+00
 0.31035035245000E+02 0.67401604501641E+00
 s    2 1.00
 0.12260860728000E+02 0.63839937025506E+00
 0.49987076005000E+01 0.39534587125718E+00
 s    1 1.00
 0.11703108158000E+01 0.10000000000000E+01
 s    1 1.00
 0.46474740994000E+00 0.10000000000000E+01
 s    1 1.00
 0.18504536357000E+00 0.10000000000000E+01
 p    4 1.00
 0.63274954801000E+02 0.12018332222616E-01
 0.14627049379000E+02 0.83005421790056E-01
 0.44501223456000E+01 0.31991743925964E+00
 0.15275799647000E+01 0.70715542916104E+00
 p    1 1.00
 0.52935117943000E+00 0.10000000000000E+01
 p    1 1.00
 0.17478421270000E+00 0.10000000000000E+01
 d    1 1.00
 0.23140000000000E+01 0.10000000000000E+01
 d    1 1.00
 0.64500000000000E+00 0.10000000000000E+01
 f    1 1.00
 0.14280000000000E+01 0.10000000000000E+01
 
   11 0
 s    6 1.00
 0.13575349682000E+05 0.60645503603591E-03
 0.20352333680000E+04 0.46979088884982E-02
 0.46322562359000E+03 0.24332477647552E-01
 0.13120019598000E+03 0.97399968307759E-01
 0.42853015891000E+02 0.30195584253780E+00
 0.15584185766000E+02 0.66233609137875E+00
 s    2 1.00
 0.62067138508000E+01 0.65595308539952E+00
 0.25764896527000E+01 0.37585633285142E+00
 s    1 1.00
 0.57696339419000E+00 0.10000000000000E+01
 s    1 1.00
 0.22972831358000E+00 0.10000000000000E+01
 s    1 1.00
 0.95164440028000E-01 0.10000000000000E+01
 p    4 1.00
 0.34697232244000E+02 0.11327220003114E-01
 0.79582622826000E+01 0.76169659202087E-01
 0.23780826883000E+01 0.30192252202676E+00
 0.81433208183000E+00 0.72785027349547E+00
 p    1 1.00
 0.28887547253000E+00 0.10000000000000E+01
 p    1 1.00
 0.10056823671000E+00 0.10000000000000E+01
 d    1 1.00
 0.10970000000000E+01 0.10000000000000E+01
 d    1 1.00
 0.31800000000000E+00 0.10000000000000E+01
 f    1 1.00
 0.76100000000000E+00 0.10000000000000E+01
 
   12 0
 s    6 1.00
 0.13575349682000E+05 0.60645503603591E-03
 0.20352333680000E+04 0.46979088884982E-02
 0.46322562359000E+03 0.24332477647552E-01
 0.13120019598000E+03 0.97399968307759E-01
 0.42853015891000E+02 0.30195584253780E+00
 0.15584185766000E+02 0.66233609137875E+00
 s    2 1.00
 0.62067138508000E+01 0.65595308539952E+00
 0.25764896527000E+01 0.37585633285142E+00
 s    1 1.00
 0.57696339419000E+00 0.10000000000000E+01
 s    1 1.00
 0.22972831358000E+00 0.10000000000000E+01
 s    1 1.00
 0.95164440028000E-01 0.10000000000000E+01
 p    4 1.00
 0.34697232244000E+02 0.11327220003114E-01
 0.79582622826000E+01 0.76169659202087E-01
 0.23780826883000E+01 0.30192252202676E+00
 0.81433208183000E+00 0.72785027349547E+00
 p    1 1.00
 0.28887547253000E+00 0.10000000000000E+01
 p    1 1.00
 0.10056823671000E+00 0.10000000000000E+01
 d    1 1.00
 0.10970000000000E+01 0.10000000000000E+01
 d    1 1.00
 0.31800000000000E+00 0.10000000000000E+01
 f    1 1.00
 0.76100000000000E+00 0.10000000000000E+01
 
   13 0
 s    3 1.00
 0.34061341000000E+02 0.25439307208879E-01
 0.51235746000000E+01 0.19008594890375E+00
 0.11646626000000E+01 0.85244113011042E+00
 s    1 1.00
 0.32723041000000E+00 0.10000000000000E+01
 s    1 1.00
 0.10307241000000E+00 0.10000000000000E+01
 p    1 1.00
 0.14070000000000E+01 0.10000000000000E+01
 p    1 1.00
 0.38800000000000E+00 0.10000000000000E+01
 d    1 1.00
 0.10570000000000E+01 0.10000000000000E+01
 
   14 0
 s    3 1.00
 0.34061341000000E+02 0.25439307208879E-01
 0.51235746000000E+01 0.19008594890375E+00
 0.11646626000000E+01 0.85244113011042E+00
 s    1 1.00
 0.32723041000000E+00 0.10000000000000E+01
 s    1 1.00
 0.10307241000000E+00 0.10000000000000E+01
 p    1 1.00
 0.14070000000000E+01 0.10000000000000E+01
 p    1 1.00
 0.38800000000000E+00 0.10000000000000E+01
 d    1 1.00
 0.10570000000000E+01 0.10000000000000E+01
 
   15 0
 s    3 1.00
 0.34061341000000E+02 0.25439307208879E-01
 0.51235746000000E+01 0.19008594890375E+00
 0.11646626000000E+01 0.85244113011042E+00
 s    1 1.00
 0.32723041000000E+00 0.10000000000000E+01
 s    1 1.00
 0.10307241000000E+00 0.10000000000000E+01
 p    1 1.00
 0.14070000000000E+01 0.10000000000000E+01
 p    1 1.00
 0.38800000000000E+00 0.10000000000000E+01
 d    1 1.00
 0.10570000000000E+01 0.10000000000000E+01
 
   16 0
 s    6 1.00
 0.27032382631000E+05 0.57227335211155E-03
 0.40523871392000E+04 0.44353233492995E-02
 0.92232722710000E+03 0.23020107706038E-01
 0.26124070989000E+03 0.92822490667928E-01
 0.85354641351000E+02 0.29378500009671E+00
 0.31035035245000E+02 0.67401604501641E+00
 s    2 1.00
 0.12260860728000E+02 0.63839937025506E+00
 0.49987076005000E+01 0.39534587125718E+00
 s    1 1.00
 0.11703108158000E+01 0.10000000000000E+01
 s    1 1.00
 0.46474740994000E+00 0.10000000000000E+01
 s    1 1.00
 0.18504536357000E+00 0.10000000000000E+01
 p    4 1.00
 0.63274954801000E+02 0.12018332222616E-01
 0.14627049379000E+02 0.83005421790056E-01
 0.44501223456000E+01 0.31991743925964E+00
 0.15275799647000E+01 0.70715542916104E+00
 p    1 1.00
 0.52935117943000E+00 0.10000000000000E+01
 p    1 1.00
 0.17478421270000E+00 0.10000000000000E+01
 d    1 1.00
 0.23140000000000E+01 0.10000000000000E+01
 d    1 1.00
 0.64500000000000E+00 0.10000000000000E+01
 f    1 1.00
 0.14280000000000E+01 0.10000000000000E+01
 
[MO]
 Sym=     1ag  
 Ene= -.18785731518252E+02
 Spin= Alpha
 Occup= 2.000000
     1 0.13840657079507E-04
     2 -.69263124003703E-04
     3 -.95199512614865E-04
     4 0.48042051355462E-02
     5 -.18990357466585E-02
     6 -.89545508911681E-04
     7 0.12276931411647E-04
     8 0.00000000000000E+00
     9 -.12419578201686E-02
    10 -.22469277738647E-02
    11 0.00000000000000E+00
    12 0.43602745375958E-04
    13 -.18336096906856E-03
    14 0.00000000000000E+00
    15 0.24057078608566E-04
    16 0.23592345267148E-04
    17 -.47649423875714E-04
    18 0.19994875035261E-04
    19 0.00000000000000E+00
    20 0.00000000000000E+00
    21 0.45922717258772E-03
    22 -.95625894015710E-03
    23 0.49703176756938E-03
    24 -.12183863137332E-03
    25 0.00000000000000E+00
    26 0.00000000000000E+00
    27 -.53999396964229E-04
    28 0.10499987370265E-04
    29 0.00000000000000E+00
    30 0.57806476700208E-04
    31 0.14247065836745E-04
    32 0.00000000000000E+00
    33 0.14641316713399E-04
    34 -.28334277150426E-04
    35 0.00000000000000E+00
    36 0.00000000000000E+00
    37 0.40271971947667E-04
    38 -.20799266902242E-03
    39 -.28185203822749E-03
    40 0.41503564856787E-02
    41 0.72458275222859E-03
    42 0.17415255664831E-05
    43 -.75781840211936E-04
    44 0.00000000000000E+00
    45 -.22984309322168E-02
    46 -.65775158184770E-02
    47 0.00000000000000E+00
    48 -.20167120758652E-02
    49 0.23355557487364E-02
    50 0.00000000000000E+00
    51 -.50687863807393E-04
    52 0.20676739302521E-03
    53 -.15607952921782E-03
    54 0.10191651194832E-03
    55 0.00000000000000E+00
    56 0.00000000000000E+00
    57 -.18417868385877E-02
    58 0.24914442880742E-02
    59 -.64965744948652E-03
    60 0.12662369315025E-05
    61 0.00000000000000E+00
    62 0.00000000000000E+00
    63 0.26235002266863E-04
    64 -.97325127588149E-04
    65 0.00000000000000E+00
    66 -.43910512048190E-04
    67 -.79589996393433E-05
    68 0.00000000000000E+00
    69 0.87125629730502E-05
    70 0.13853436036291E-03
    71 0.00000000000000E+00
    72 0.00000000000000E+00
    73 -.22251629812809E-04
    74 -.14010348293158E-02
    75 0.65477883358870E-03
    76 0.36763869030725E-04
    77 -.11285847861483E-04
    78 -.16983792618016E-04
    79 0.25854615148566E-03
    80 -.36408909486469E-03
    81 -.45750535833448E-03
    82 -.20772247455130E-04
    83 0.32438654261080E-04
    84 -.11666406805949E-04
    85 0.32603479415536E-04
    86 0.16829623448441E-04
    87 -.18282415366644E-04
    88 -.22251629812809E-04
    89 -.14010348293158E-02
    90 0.65477883358870E-03
    91 0.36763869030725E-04
    92 -.11285847861483E-04
    93 0.16983792618016E-04
    94 0.25854615148566E-03
    95 -.36408909486469E-03
    96 0.45750535833448E-03
    97 -.20772247455130E-04
    98 0.32438654261080E-04
    99 -.11666406805949E-04
   100 0.32603479415536E-04
   101 -.16829623448441E-04
   102 0.18282415366644E-04
   103 0.86059680927796E-04
   104 0.16732942565105E-02
   105 0.87606993816875E-04
   106 -.10261028540285E-03
   107 -.58266039656262E-05
   108 0.00000000000000E+00
   109 0.21324176330333E-03
   110 -.45989902718145E-03
   111 0.00000000000000E+00
   112 -.12949369790089E-06
   113 -.16594378671135E-04
   114 0.16723872369036E-04
   115 0.82803076564666E-05
   116 0.00000000000000E+00
   117 0.00000000000000E+00
   118 0.30782650081078E+00
   119 0.45149228423075E+00
   120 0.28618547513213E-01
   121 -.26418907663252E-01
   122 0.50414676925645E-02
   123 -.78795858542326E-03
   124 0.12013966180643E-02
   125 0.00000000000000E+00
   126 0.21982025705573E-02
   127 -.41143271173243E-02
   128 0.00000000000000E+00
   129 0.74369719466531E-03
   130 -.82026046626483E-03
   131 0.00000000000000E+00
   132 0.53468449045185E-04
   133 0.76722852669936E-04
   134 -.13019130171512E-03
   135 0.10043972785067E-03
   136 0.00000000000000E+00
   137 0.00000000000000E+00
   138 -.20578014597662E-03
   139 -.53007109675020E-03
   140 0.73585124272682E-03
   141 -.50798415741080E-03
   142 0.00000000000000E+00
   143 0.00000000000000E+00
   144 0.37545513176105E-04
   145 -.55502535258657E-04
   146 0.00000000000000E+00
   147 -.35684919903763E-04
   148 0.47677366301093E-04
   149 0.00000000000000E+00
   150 -.14687671923368E-04
   151 0.26787098756068E-04
   152 0.00000000000000E+00
   153 0.00000000000000E+00
   154 -.75846883309582E-04
   155 -.56853059526899E-04
   156 -.48176298935406E-03
   157 0.13543004630516E-02
   158 -.11008028583831E-02
   159 0.21816567218769E-03
   160 0.46176307400191E-04
   161 0.00000000000000E+00
   162 -.84252426522597E-03
   163 -.62515075669655E-03
   164 0.00000000000000E+00
   165 -.18812335345176E-02
   166 -.26919367866903E-03
   167 0.00000000000000E+00
   168 -.19348010117251E-04
   169 0.24253081301625E-04
   170 -.49050711843738E-05
   171 -.38180791889929E-04
   172 0.00000000000000E+00
   173 0.00000000000000E+00
   174 0.68056007823084E-04
   175 -.25718513043343E-04
   176 -.42337494779740E-04
   177 0.13932729396050E-03
   178 0.00000000000000E+00
   179 0.00000000000000E+00
   180 -.23535890491546E-04
   181 0.14723238857408E-04
   182 0.00000000000000E+00
   183 0.11276958869739E-04
   184 -.14412680776834E-04
   185 0.00000000000000E+00
   186 0.20299751760314E-04
   187 -.53406169836440E-05
   188 0.00000000000000E+00
   189 0.00000000000000E+00
   190 0.43297832331830E-03
   191 0.40463079367143E-02
   192 -.34802034673483E-02
   193 0.65764117130865E-05
   194 -.64771701084576E-06
   195 0.00000000000000E+00
   196 0.40532354704769E-02
   197 0.92514796069798E-03
   198 0.00000000000000E+00
   199 0.20515853856823E-05
   200 0.58332473520907E-05
   201 -.78848327377730E-05
   202 -.10840907607839E-04
   203 0.00000000000000E+00
   204 0.00000000000000E+00
   205 -.22251629812809E-04
   206 -.14010348293158E-02
   207 0.65477883358870E-03
   208 -.36763869030725E-04
   209 0.11285847861483E-04
   210 -.16983792618016E-04
   211 -.25854615148566E-03
   212 0.36408909486469E-03
   213 -.45750535833448E-03
   214 -.20772247455130E-04
   215 0.32438654261080E-04
   216 -.11666406805949E-04
   217 0.32603479415536E-04
   218 -.16829623448441E-04
   219 0.18282415366644E-04
   220 0.30782650081078E+00
   221 0.45149228423075E+00
   222 0.28618547513213E-01
   223 -.26418907663252E-01
   224 0.50414676925645E-02
   225 0.78795858542326E-03
   226 -.12013966180643E-02
   227 0.00000000000000E+00
   228 -.21982025705573E-02
   229 0.41143271173243E-02
   230 0.00000000000000E+00
   231 -.74369719466531E-03
   232 0.82026046626483E-03
   233 0.00000000000000E+00
   234 0.53468449045185E-04
   235 0.76722852669936E-04
   236 -.13019130171512E-03
   237 0.10043972785067E-03
   238 0.00000000000000E+00
   239 0.00000000000000E+00
   240 -.20578014597662E-03
   241 -.53007109675020E-03
   242 0.73585124272682E-03
   243 -.50798415741080E-03
   244 0.00000000000000E+00
   245 0.00000000000000E+00
   246 -.37545513176105E-04
   247 0.55502535258657E-04
   248 0.00000000000000E+00
   249 0.35684919903763E-04
   250 -.47677366301093E-04
   251 0.00000000000000E+00
   252 0.14687671923368E-04
   253 -.26787098756068E-04
   254 0.00000000000000E+00
   255 0.00000000000000E+00
   256 0.40271971947667E-04
   257 -.20799266902242E-03
   258 -.28185203822749E-03
   259 0.41503564856787E-02
   260 0.72458275222859E-03
   261 -.17415255664831E-05
   262 0.75781840211936E-04
   263 0.00000000000000E+00
   264 0.22984309322168E-02
   265 0.65775158184770E-02
   266 0.00000000000000E+00
   267 0.20167120758652E-02
   268 -.23355557487364E-02
   269 0.00000000000000E+00
   270 -.50687863807393E-04
   271 0.20676739302521E-03
   272 -.15607952921782E-03
   273 0.10191651194832E-03
   274 0.00000000000000E+00
   275 0.00000000000000E+00
   276 -.18417868385877E-02
   277 0.24914442880742E-02
   278 -.64965744948652E-03
   279 0.12662369315025E-05
   280 0.00000000000000E+00
   281 0.00000000000000E+00
   282 -.26235002266863E-04
   283 0.97325127588149E-04
   284 0.00000000000000E+00
   285 0.43910512048190E-04
   286 0.79589996393433E-05
   287 0.00000000000000E+00
   288 -.87125629730502E-05
   289 -.13853436036291E-03
   290 0.00000000000000E+00
   291 0.00000000000000E+00
   292 0.13840657079507E-04
   293 -.69263124003703E-04
   294 -.95199512614865E-04
   295 0.48042051355462E-02
   296 -.18990357466585E-02
   297 0.89545508911681E-04
   298 -.12276931411647E-04
   299 0.00000000000000E+00
   300 0.12419578201686E-02
   301 0.22469277738647E-02
   302 0.00000000000000E+00
   303 -.43602745375958E-04
   304 0.18336096906856E-03
   305 0.00000000000000E+00
   306 0.24057078608566E-04
   307 0.23592345267148E-04
   308 -.47649423875714E-04
   309 0.19994875035261E-04
   310 0.00000000000000E+00
   311 0.00000000000000E+00
   312 0.45922717258772E-03
   313 -.95625894015710E-03
   314 0.49703176756938E-03
   315 -.12183863137332E-03
   316 0.00000000000000E+00
   317 0.00000000000000E+00
   318 0.53999396964229E-04
   319 -.10499987370265E-04
   320 0.00000000000000E+00
   321 -.57806476700208E-04
   322 -.14247065836745E-04
   323 0.00000000000000E+00
   324 -.14641316713399E-04
   325 0.28334277150426E-04
   326 0.00000000000000E+00
   327 0.00000000000000E+00
   328 -.22251629812809E-04
   329 -.14010348293158E-02
   330 0.65477883358870E-03
   331 -.36763869030725E-04
   332 0.11285847861483E-04
   333 0.16983792618016E-04
   334 -.25854615148566E-03
   335 0.36408909486469E-03
   336 0.45750535833448E-03
   337 -.20772247455130E-04
   338 0.32438654261080E-04
   339 -.11666406805949E-04
   340 0.32603479415536E-04
   341 0.16829623448441E-04
   342 -.18282415366644E-04
   343 0.43297832331830E-03
   344 0.40463079367143E-02
   345 -.34802034673483E-02
   346 -.65764117130865E-05
   347 0.64771701084576E-06
   348 0.00000000000000E+00
   349 -.40532354704769E-02
   350 -.92514796069798E-03
   351 0.00000000000000E+00
   352 0.20515853856823E-05
   353 0.58332473520907E-05
   354 -.78848327377730E-05
   355 -.10840907607839E-04
   356 0.00000000000000E+00
   357 0.00000000000000E+00
   358 0.86059680927796E-04
   359 0.16732942565105E-02
   360 0.87606993816875E-04
   361 0.10261028540285E-03
   362 0.58266039656262E-05
   363 0.00000000000000E+00
   364 -.21324176330333E-03
   365 0.45989902718145E-03
   366 0.00000000000000E+00
   367 -.12949369790089E-06
   368 -.16594378671135E-04
   369 0.16723872369036E-04
   370 0.82803076564666E-05
   371 0.00000000000000E+00
   372 0.00000000000000E+00
   373 -.75846883309582E-04
   374 -.56853059526899E-04
   375 -.48176298935406E-03
   376 0.13543004630516E-02
   377 -.11008028583831E-02
   378 -.21816567218769E-03
   379 -.46176307400191E-04
   380 0.00000000000000E+00
   381 0.84252426522597E-03
   382 0.62515075669655E-03
   383 0.00000000000000E+00
   384 0.18812335345176E-02
   385 0.26919367866903E-03
   386 0.00000000000000E+00
   387 -.19348010117251E-04
   388 0.24253081301625E-04
   389 -.49050711843738E-05
   390 -.38180791889929E-04
   391 0.00000000000000E+00
   392 0.00000000000000E+00
   393 0.68056007823084E-04
   394 -.25718513043343E-04
   395 -.42337494779740E-04
   396 0.13932729396050E-03
   397 0.00000000000000E+00
   398 0.00000000000000E+00
   399 0.23535890491546E-04
   400 -.14723238857408E-04
   401 0.00000000000000E+00
   402 -.11276958869739E-04
   403 0.14412680776834E-04
   404 0.00000000000000E+00
   405 -.20299751760314E-04
   406 0.53406169836440E-05
   407 0.00000000000000E+00
   408 0.00000000000000E+00
 Sym=     1bu  
 Ene= -.18785730576877E+02
 Spin= Alpha
 Occup= 2.000000
     1 0.16545476436716E-04
     2 -.81932869089882E-04
     3 -.73928217365206E-04
     4 0.47890182922790E-02
     5 -.40141357181441E-02
     6 -.90922713313385E-04
     7 0.27792813285803E-04
     8 0.00000000000000E+00
     9 -.19918924376024E-02
    10 -.21921688958465E-02
    11 0.00000000000000E+00
    12 0.54216572097367E-03
    13 0.61110875227918E-04
    14 0.00000000000000E+00
    15 0.42508330738736E-04
    16 0.15112586219071E-04
    17 -.57620916957807E-04
    18 0.20846766837202E-04
    19 0.00000000000000E+00
    20 0.00000000000000E+00
    21 0.55734350696107E-03
    22 -.90901728661121E-03
    23 0.35167377965014E-03
    24 0.19190328313123E-04
    25 0.00000000000000E+00
    26 0.00000000000000E+00
    27 -.58757554745998E-04
    28 0.14869139791712E-04
    29 0.00000000000000E+00
    30 0.63247567080378E-04
    31 0.24462399278673E-05
    32 0.00000000000000E+00
    33 0.15583964881852E-04
    34 -.22395284332596E-04
    35 0.00000000000000E+00
    36 0.00000000000000E+00
    37 0.36334719682234E-04
    38 -.18884168737316E-03
    39 -.12612570017233E-03
    40 0.26947024306583E-02
    41 0.18257187198692E-03
    42 0.11456087692546E-03
    43 -.10344785258801E-03
    44 0.00000000000000E+00
    45 -.29382148981756E-02
    46 -.62840853440627E-02
    47 0.00000000000000E+00
    48 0.48575998828627E-03
    49 0.27760734332842E-02
    50 0.00000000000000E+00
    51 -.63558388093767E-04
    52 0.22583655597239E-03
    53 -.16227816787862E-03
    54 0.11165809829909E-03
    55 0.00000000000000E+00
    56 0.00000000000000E+00
    57 -.19724259350222E-02
    58 0.24130036464015E-02
    59 -.44057771137927E-03
    60 -.84239963833915E-05
    61 0.00000000000000E+00
    62 0.00000000000000E+00
    63 0.19050710428003E-04
    64 -.48306947412022E-04
    65 0.00000000000000E+00
    66 -.37387514604061E-04
    67 -.50989581768801E-04
    68 0.00000000000000E+00
    69 0.11828304482054E-04
    70 0.11580015268807E-03
    71 0.00000000000000E+00
    72 0.00000000000000E+00
    73 -.30141768731628E-04
    74 -.99112543553295E-03
    75 0.79650281682255E-03
    76 0.26899280639879E-04
    77 -.15940762442685E-04
    78 -.21746313305506E-04
    79 0.23942748979037E-03
    80 -.26155434211976E-03
    81 -.29733788628214E-03
    82 -.25164005842415E-04
    83 0.31840078817350E-04
    84 -.66760729749342E-05
    85 0.24476441411939E-04
    86 0.16842601717064E-04
    87 -.14081843044064E-04
    88 -.30141768731628E-04
    89 -.99112543553295E-03
    90 0.79650281682255E-03
    91 0.26899280639879E-04
    92 -.15940762442685E-04
    93 0.21746313305506E-04
    94 0.23942748979037E-03
    95 -.26155434211976E-03
    96 0.29733788628214E-03
    97 -.25164005842415E-04
    98 0.31840078817350E-04
    99 -.66760729749342E-05
   100 0.24476441411939E-04
   101 -.16842601717064E-04
   102 0.14081843044064E-04
   103 0.93813057367950E-04
   104 0.15444852603887E-02
   105 0.79768414287537E-04
   106 -.13286240105910E-03
   107 -.28103820199061E-05
   108 0.00000000000000E+00
   109 0.31441070392785E-03
   110 -.41386659527793E-03
   111 0.00000000000000E+00
   112 -.11078425857394E-04
   113 -.15677314174045E-04
   114 0.26755740031439E-04
   115 0.65335726776863E-05
   116 0.00000000000000E+00
   117 0.00000000000000E+00
   118 0.30782550945321E+00
   119 0.45150016622093E+00
   120 0.28438978416036E-01
   121 -.25741573296864E-01
   122 0.54706664686816E-02
   123 -.80018971397621E-03
   124 0.12012295632633E-02
   125 0.00000000000000E+00
   126 0.21153871062193E-02
   127 -.39510101393085E-02
   128 0.00000000000000E+00
   129 0.63717535763955E-03
   130 -.15152605019180E-03
   131 0.00000000000000E+00
   132 0.53922032587532E-04
   133 0.72868472318359E-04
   134 -.12679050490589E-03
   135 0.10501598904575E-03
   136 0.00000000000000E+00
   137 0.00000000000000E+00
   138 -.17499143800323E-03
   139 -.48409206286844E-03
   140 0.65908350087168E-03
   141 -.46765411981278E-03
   142 0.00000000000000E+00
   143 0.00000000000000E+00
   144 0.30434986432920E-04
   145 -.50215693130888E-04
   146 0.00000000000000E+00
   147 -.28121847541084E-04
   148 0.43422695104387E-04
   149 0.00000000000000E+00
   150 -.12710971593892E-04
   151 0.23948726922374E-04
   152 0.00000000000000E+00
   153 0.00000000000000E+00
   154 0.87524743800898E-04
   155 0.76907263016112E-04
   156 0.22841159279633E-03
   157 0.68379290656553E-03
   158 -.26635401393818E-02
   159 -.92140404899775E-04
   160 -.59885827702647E-04
   161 0.00000000000000E+00
   162 0.41485680148068E-03
   163 -.30624612436086E-03
   164 0.00000000000000E+00
   165 -.25983001888729E-03
   166 -.24485743357721E-03
   167 0.00000000000000E+00
   168 0.10116501176109E-03
   169 -.28062084122262E-04
   170 -.73102927638824E-04
   171 0.27258184150284E-04
   172 0.00000000000000E+00
   173 0.00000000000000E+00
   174 -.51436014667247E-03
   175 0.25013775728750E-03
   176 0.26422238938497E-03
   177 -.18103980518099E-03
   178 0.00000000000000E+00
   179 0.00000000000000E+00
   180 0.55026795696327E-05
   181 -.36402308000379E-05
   182 0.00000000000000E+00
   183 0.22341168124011E-05
   184 0.17250604459141E-04
   185 0.00000000000000E+00
   186 -.96167361580600E-05
   187 -.12366722345537E-04
   188 0.00000000000000E+00
   189 0.00000000000000E+00
   190 0.43617792358785E-03
   191 0.37684603572773E-02
   192 -.14568595781345E-02
   193 -.92644908015417E-05
   194 -.66641686815897E-05
   195 0.00000000000000E+00
   196 0.38484811754884E-02