[Molden Format]
[Title]
                                                                                
[Atoms] AU
 c     1    6 -.75655662083791E+01 0.23832954945138E+01 -.47280606680435E+01
 c     2    6 -.10290447177782E+02 0.17595875947662E+01 -.52615647005375E+01
 h     3    1 -.64585140165203E+01 0.22054122775647E+01 -.64794919950547E+01
 h     4    1 -.67964649601990E+01 0.10082108141365E+01 -.33702400803789E+01
 h     5    1 -.74140913584655E+01 0.43040055530996E+01 -.39697902474990E+01
 o     6    8 -.10626346141099E+02 -.50926808548346E+00 -.62058489147913E+01
 o     7    8 -.12013220096954E+02 0.32687825483033E+01 -.48336154431480E+01
 h     8    1 -.12499152899695E+02 -.83469227380923E+00 -.65281586706981E+01
 h     9    1 -.20613115066009E+02 0.92020043838443E+00 -.84780789178584E+01
 o    10    8 -.16776182042482E+02 0.24305580602446E+01 -.56576439970224E+01
 c    11    6 -.17112144152252E+02 0.16149992525867E+00 -.66014130445802E+01
 c    12    6 -.19837261844338E+02 -.46306756774370E+00 -.71326366040703E+01
 h    13    1 -.20939455137206E+02 -.30002011975413E+00 -.53766116063761E+01
 h    14    1 -.14903383369839E+02 0.27559393476260E+01 -.53352801245421E+01
 h    15    1 -.19987413337020E+02 -.23789460571109E+01 -.79032263338820E+01
 o    16    8 -.15389362945944E+02 -.13476276574965E+01 -.70295379531270E+01
[GTO]
    1 0
 s    5 1.00
 0.12384016938000E+04 0.55173650481097E-02
 0.18629004992000E+03 0.41088828555946E-01
 0.42251176346000E+02 0.18225382126490E+00
 0.11676557932000E+02 0.46828459437429E+00
 0.35930506482000E+01 0.44575817336002E+00
 s    1 1.00
 0.40245147363000E+00 0.10000000000000E+01
 s    1 1.00
 0.13090182668000E+00 0.10000000000000E+01
 p    3 1.00
 0.94680970621000E+01 0.56888332011037E-01
 0.20103545142000E+01 0.31294059336471E+00
 0.54771004707000E+00 0.76065016509135E+00
 p    1 1.00
 0.15268613795000E+00 0.10000000000000E+01
 d    1 1.00
 0.80000000000000E+00 0.10000000000000E+01
 
    2 0
 s    5 1.00
 0.12384016938000E+04 0.55173650481097E-02
 0.18629004992000E+03 0.41088828555946E-01
 0.42251176346000E+02 0.18225382126490E+00
 0.11676557932000E+02 0.46828459437429E+00
 0.35930506482000E+01 0.44575817336002E+00
 s    1 1.00
 0.40245147363000E+00 0.10000000000000E+01
 s    1 1.00
 0.13090182668000E+00 0.10000000000000E+01
 p    3 1.00
 0.94680970621000E+01 0.56888332011037E-01
 0.20103545142000E+01 0.31294059336471E+00
 0.54771004707000E+00 0.76065016509135E+00
 p    1 1.00
 0.15268613795000E+00 0.10000000000000E+01
 d    1 1.00
 0.80000000000000E+00 0.10000000000000E+01
 
    3 0
 s    3 1.00
 0.13010701000000E+02 0.33485484812989E-01
 0.19622572000000E+01 0.23472187088125E+00
 0.44453796000000E+00 0.81377028525955E+00
 s    1 1.00
 0.12194962000000E+00 0.10000000000000E+01
 p    1 1.00
 0.80000000000000E+00 0.10000000000000E+01
 
    4 0
 s    3 1.00
 0.13010701000000E+02 0.33485484812989E-01
 0.19622572000000E+01 0.23472187088125E+00
 0.44453796000000E+00 0.81377028525955E+00
 s    1 1.00
 0.12194962000000E+00 0.10000000000000E+01
 p    1 1.00
 0.80000000000000E+00 0.10000000000000E+01
 
    5 0
 s    3 1.00
 0.13010701000000E+02 0.33485484812989E-01
 0.19622572000000E+01 0.23472187088125E+00
 0.44453796000000E+00 0.81377028525955E+00
 s    1 1.00
 0.12194962000000E+00 0.10000000000000E+01
 p    1 1.00
 0.80000000000000E+00 0.10000000000000E+01
 
    6 0
 s    5 1.00
 0.22661767785000E+04 -.53893503921743E-02
 0.34087010191000E+03 -.40234721388960E-01
 0.77363135167000E+02 -.18008184205526E+00
 0.21479644940000E+02 -.46828857657651E+00
 0.66589433124000E+01 -.44692617160187E+00
 s    1 1.00
 0.80975975668000E+00 0.10000000000000E+01
 s    1 1.00
 0.25530772234000E+00 0.10000000000000E+01
 p    3 1.00
 0.17721504317000E+02 0.62630248763161E-01
 0.38635505440000E+01 0.33331138482352E+00
 0.10480920883000E+01 0.74148638308122E+00
 p    1 1.00
 0.27641544411000E+00 0.10000000000000E+01
 d    1 1.00
 0.12000000000000E+01 0.10000000000000E+01
 
    7 0
 s    5 1.00
 0.22661767785000E+04 -.53893503921743E-02
 0.34087010191000E+03 -.40234721388960E-01
 0.77363135167000E+02 -.18008184205526E+00
 0.21479644940000E+02 -.46828857657651E+00
 0.66589433124000E+01 -.44692617160187E+00
 s    1 1.00
 0.80975975668000E+00 0.10000000000000E+01
 s    1 1.00
 0.25530772234000E+00 0.10000000000000E+01
 p    3 1.00
 0.17721504317000E+02 0.62630248763161E-01
 0.38635505440000E+01 0.33331138482352E+00
 0.10480920883000E+01 0.74148638308122E+00
 p    1 1.00
 0.27641544411000E+00 0.10000000000000E+01
 d    1 1.00
 0.12000000000000E+01 0.10000000000000E+01
 
    8 0
 s    3 1.00
 0.13010701000000E+02 0.33485484812989E-01
 0.19622572000000E+01 0.23472187088125E+00
 0.44453796000000E+00 0.81377028525955E+00
 s    1 1.00
 0.12194962000000E+00 0.10000000000000E+01
 p    1 1.00
 0.80000000000000E+00 0.10000000000000E+01
 
    9 0
 s    3 1.00
 0.13010701000000E+02 0.33485484812989E-01
 0.19622572000000E+01 0.23472187088125E+00
 0.44453796000000E+00 0.81377028525955E+00
 s    1 1.00
 0.12194962000000E+00 0.10000000000000E+01
 p    1 1.00
 0.80000000000000E+00 0.10000000000000E+01
 
   10 0
 s    5 1.00
 0.22661767785000E+04 -.53893503921743E-02
 0.34087010191000E+03 -.40234721388960E-01
 0.77363135167000E+02 -.18008184205526E+00
 0.21479644940000E+02 -.46828857657651E+00
 0.66589433124000E+01 -.44692617160187E+00
 s    1 1.00
 0.80975975668000E+00 0.10000000000000E+01
 s    1 1.00
 0.25530772234000E+00 0.10000000000000E+01
 p    3 1.00
 0.17721504317000E+02 0.62630248763161E-01
 0.38635505440000E+01 0.33331138482352E+00
 0.10480920883000E+01 0.74148638308122E+00
 p    1 1.00
 0.27641544411000E+00 0.10000000000000E+01
 d    1 1.00
 0.12000000000000E+01 0.10000000000000E+01
 
   11 0
 s    5 1.00
 0.12384016938000E+04 0.55173650481097E-02
 0.18629004992000E+03 0.41088828555946E-01
 0.42251176346000E+02 0.18225382126490E+00
 0.11676557932000E+02 0.46828459437429E+00
 0.35930506482000E+01 0.44575817336002E+00
 s    1 1.00
 0.40245147363000E+00 0.10000000000000E+01
 s    1 1.00
 0.13090182668000E+00 0.10000000000000E+01
 p    3 1.00
 0.94680970621000E+01 0.56888332011037E-01
 0.20103545142000E+01 0.31294059336471E+00
 0.54771004707000E+00 0.76065016509135E+00
 p    1 1.00
 0.15268613795000E+00 0.10000000000000E+01
 d    1 1.00
 0.80000000000000E+00 0.10000000000000E+01
 
   12 0
 s    5 1.00
 0.12384016938000E+04 0.55173650481097E-02
 0.18629004992000E+03 0.41088828555946E-01
 0.42251176346000E+02 0.18225382126490E+00
 0.11676557932000E+02 0.46828459437429E+00
 0.35930506482000E+01 0.44575817336002E+00
 s    1 1.00
 0.40245147363000E+00 0.10000000000000E+01
 s    1 1.00
 0.13090182668000E+00 0.10000000000000E+01
 p    3 1.00
 0.94680970621000E+01 0.56888332011037E-01
 0.20103545142000E+01 0.31294059336471E+00
 0.54771004707000E+00 0.76065016509135E+00
 p    1 1.00
 0.15268613795000E+00 0.10000000000000E+01
 d    1 1.00
 0.80000000000000E+00 0.10000000000000E+01
 
   13 0
 s    3 1.00
 0.13010701000000E+02 0.33485484812989E-01
 0.19622572000000E+01 0.23472187088125E+00
 0.44453796000000E+00 0.81377028525955E+00
 s    1 1.00
 0.12194962000000E+00 0.10000000000000E+01
 p    1 1.00
 0.80000000000000E+00 0.10000000000000E+01
 
   14 0
 s    3 1.00
 0.13010701000000E+02 0.33485484812989E-01
 0.19622572000000E+01 0.23472187088125E+00
 0.44453796000000E+00 0.81377028525955E+00
 s    1 1.00
 0.12194962000000E+00 0.10000000000000E+01
 p    1 1.00
 0.80000000000000E+00 0.10000000000000E+01
 
   15 0
 s    3 1.00
 0.13010701000000E+02 0.33485484812989E-01
 0.19622572000000E+01 0.23472187088125E+00
 0.44453796000000E+00 0.81377028525955E+00
 s    1 1.00
 0.12194962000000E+00 0.10000000000000E+01
 p    1 1.00
 0.80000000000000E+00 0.10000000000000E+01
 
   16 0
 s    5 1.00
 0.22661767785000E+04 -.53893503921743E-02
 0.34087010191000E+03 -.40234721388960E-01
 0.77363135167000E+02 -.18008184205526E+00
 0.21479644940000E+02 -.46828857657651E+00
 0.66589433124000E+01 -.44692617160187E+00
 s    1 1.00
 0.80975975668000E+00 0.10000000000000E+01
 s    1 1.00
 0.25530772234000E+00 0.10000000000000E+01
 p    3 1.00
 0.17721504317000E+02 0.62630248763161E-01
 0.38635505440000E+01 0.33331138482352E+00
 0.10480920883000E+01 0.74148638308122E+00
 p    1 1.00
 0.27641544411000E+00 0.10000000000000E+01
 d    1 1.00
 0.12000000000000E+01 0.10000000000000E+01
 
[MO]
 Sym=     1a   
 Ene= -.19091717319339E+02
 Spin= Alpha
 Occup= 2.000000
     1 -.59554280979274E-04
     2 0.82520202856602E-03
     3 -.29785414271990E-02
     4 -.26675829322976E-03
     5 -.16048991770888E-03
     6 -.90658252735737E-04
     7 0.13432283389683E-02
     8 -.12418477636031E-02
     9 -.39559950441006E-03
    10 0.20263714646590E-04
    11 0.38446302224747E-05
    12 -.24108344869064E-04
    13 0.18620031254582E-03
    14 0.82598968401088E-04
    15 0.40767261855603E-04
    16 -.16378548116837E-03
    17 -.60365718950749E-03
    18 -.31617961993539E-02
    19 0.53259375044486E-04
    20 0.14489537498881E-03
    21 0.64518273905589E-04
    22 -.38389891827212E-03
    23 0.94804469695043E-02
    24 0.37683017119091E-02
    25 -.47303298679707E-03
    26 0.59839185104953E-03
    27 -.12535886425245E-03
    28 -.40949913488443E-04
    29 -.41129579656582E-04
    30 0.39290521644684E-03
    31 0.23554442008840E-03
    32 0.40002474557599E-03
    33 -.33576644663066E-03
    34 -.29704936257620E-04
    35 -.56864140291430E-04
    36 0.24316252660556E-03
    37 0.45276097949886E-03
    38 -.33660193197761E-03
    39 -.33221636774064E-04
    40 -.41902101131180E-04
    41 0.23168062207977E-03
    42 0.15185969780210E-03
    43 0.22555471863016E-03
    44 0.10010126931651E-03
    45 0.68490065726770E-04
    46 0.85423821807371E+00
    47 -.35311367572014E-01
    48 0.25210107971485E-01
    49 0.12217627965823E-02
    50 -.14281228269266E-02
    51 -.44729145909371E-03
    52 0.95901526349316E-04
    53 0.43131222700489E-02
    54 0.17378877157799E-02
    55 -.28482296039969E-03
    56 0.10737038818280E-03
    57 0.17745257221690E-03
    58 -.14176578762109E-03
    59 -.11521541478147E-03
    60 -.61607723969123E-04
    61 -.10364789899795E-02
    62 0.59647324544281E-03
    63 -.32661062377403E-02
    64 0.46315468257230E-03
    65 0.93846194944067E-05
    66 0.51064971196207E-04
    67 -.34612645886171E-02
    68 -.60416522137907E-03
    69 -.59783213575128E-03
    70 -.13566856164726E-03
    71 0.10376303648278E-03
    72 0.31905525164473E-04
    73 0.57840736612893E-04
    74 0.53093524562518E-05
    75 0.47086548565972E-04
    76 0.23746680073576E-03
    77 -.40770662144780E-02
    78 0.23423146850295E-02
    79 0.15173050445142E-03
    80 0.30075968126159E-03
    81 0.12235849761894E-03
    82 0.16484845725828E-03
    83 0.20641425544923E-03
    84 0.15589702654511E-04
    85 0.20947126905303E-04
    86 0.49848473947336E+00
    87 -.20609657389481E-01
    88 0.14616839465916E-01
    89 -.71500066009212E-03
    90 0.84779756428136E-03
    91 0.26642025102982E-03
    92 -.38201634764359E-03
    93 -.25191807768801E-02
    94 -.10482839774259E-02
    95 -.19165537720484E-03
    96 0.70209195222486E-04
    97 0.12144618198236E-03
    98 -.77945719893873E-04
    99 -.70714632427761E-04
   100 -.41218285073455E-04
   101 -.96783566880896E-04
   102 -.24539076689427E-03
   103 -.15421892891763E-02
   104 -.75656586269305E-04
   105 -.18413398437457E-03
   106 -.81696573194638E-04
   107 0.13804494532699E-02
   108 -.60646040408291E-02
   109 -.22903853697811E-02
   110 -.30539023267817E-03
   111 0.39654432203697E-03
   112 -.91154089358791E-04
   113 -.52817142914921E-04
   114 -.36008088496972E-04
   115 0.26079690032139E-03
   116 -.35514698884324E-04
   117 0.44589151403816E-03
   118 -.92644566554072E-03
   119 0.17310167519057E-03
   120 0.10370616401917E-03
   121 0.59032877169076E-04
   122 -.53544375966960E-03
   123 0.98041289420523E-03
   124 0.34685224515156E-03
   125 0.18942149952563E-04
   126 0.39621654692124E-05
   127 -.22904315421776E-04
   128 0.12079602498035E-03
   129 0.55352641458548E-04
   130 0.31755722840809E-04
   131 0.12038644775204E-03
   132 0.15168890949884E-03
   133 0.20581777636307E-03
   134 0.11264547823755E-04
   135 0.33312903884807E-04
   136 0.12941443156740E-03
   137 -.22127807756072E-02
   138 -.15311471974593E-02
   139 -.19648643796606E-03
   140 -.23577959451629E-03
   141 0.12239390009096E-03
   142 0.10302773613868E-03
   143 -.15100971505758E-03
   144 -.59434082824448E-04
   145 -.40790208243242E-04
   146 -.22203168988405E-03
   147 -.27893045400705E-04
   148 -.16103361905997E-02
   149 -.46331974148609E-03
   150 -.20897409491394E-04
   151 -.55718375658025E-04
   152 0.33573652872472E-02
   153 0.24877653439151E-03
   154 0.44352704931950E-03
   155 -.82134497579211E-05
   156 0.25482733264089E-04
   157 -.17269283506168E-04
   158 0.86843659679007E-04
   159 0.37727159691942E-04
   160 0.36031258129436E-04
 Sym=     2a   
 Ene= -.19091710178299E+02
 Spin= Alpha
 Occup= 2.000000
     1 0.33208512809899E-04
     2 -.55420793972602E-03
     3 0.33891441024448E-02
     4 0.12020251763178E-03
     5 0.73070465640633E-04
     6 0.40888638151357E-04
     7 -.12868105274896E-02
     8 0.21138440693049E-03
     9 -.23443938990607E-04
    10 0.25512952149719E-05
    11 0.17396621025697E-05
    12 -.42909573175416E-05
    13 -.84025532489232E-04
    14 -.33320404228411E-04
    15 -.82078374542732E-05
    16 0.93128040023894E-04
    17 0.56949587816794E-03
    18 0.24601456510848E-02
    19 0.59502093960636E-04
    20 0.11766700638843E-03
    21 0.52399569039536E-04
    22 -.21276734329510E-02
    23 -.44518941115286E-02
    24 -.20086551371837E-02
    25 0.21633276619111E-03
    26 -.25323999196718E-03
    27 0.36907225776074E-04
    28 -.35039053774740E-04
    29 -.18297829591668E-06
    30 -.16486467380406E-03
    31 -.17462338352194E-03
    32 -.41576131517390E-03
    33 0.17533934425923E-03
    34 0.29625575874776E-04
    35 0.31224192539016E-04
    36 -.17936232286760E-03
    37 -.45058530311627E-03
    38 0.17710610704624E-03
    39 0.28277333560870E-04
    40 0.30528342250750E-04
    41 -.16122510658222E-03
    42 -.59228318579076E-04
    43 -.92578884152656E-04
    44 -.57542255626450E-04
    45 -.35141851939353E-04
    46 -.49849908511696E+00
    47 0.20598276168002E-01
    48 -.14903252965696E-01
    49 -.70877007576418E-03
    50 0.80419943256225E-03
    51 0.24975337402528E-03
    52 0.60675991938436E-03
    53 -.25124267596305E-02
    54 -.94434150910128E-03
    55 0.11448660479987E-03
    56 -.47286484015565E-04
    57 -.67200120784310E-04
    58 0.92446419568014E-04
    59 0.60166028291445E-04
    60 0.25218443697946E-04
    61 0.13833746990948E-02
    62 -.11123569799473E-02
    63 0.25068781678968E-02
    64 0.12211235908828E-03
    65 0.25857448206745E-04
    66 0.22906676069432E-04
    67 -.69892534916730E-03
    68 0.56400732120567E-03
    69 0.15518247272073E-03
    70 0.22342529019151E-03
    71 -.13190177460940E-03
    72 -.91523515582101E-04
    73 0.74165542723735E-04
    74 0.67272252075063E-04
    75 -.10012648308023E-04
    76 -.15722579044051E-03
    77 0.27175272074307E-02
    78 -.10328968619976E-02
    79 0.13099737873716E-03
    80 -.53267019866250E-04
    81 0.27366472380026E-03
    82 0.59988336661642E-03
    83 0.31961960723991E-03
    84 0.42041095983486E-04
    85 0.46368555583275E-04
    86 0.85424658296441E+00
    87 -.35304734430034E-01
    88 0.25376966162445E-01
    89 -.12180887812515E-02
    90 0.14028300299411E-02
    91 0.43722328964783E-03
    92 0.48100870009034E-03
    93 -.43092257267884E-02
    94 -.16768727756456E-02
    95 -.23979690685953E-03
    96 0.93983298723589E-04
    97 0.14581360813594E-03
    98 -.15021709248389E-03
    99 -.10909625866006E-03
   100 -.52248803486904E-04
   101 -.16165532534425E-03
   102 -.79279171778896E-03
   103 -.36969361043563E-02
   104 0.25555227656242E-04
   105 0.30967233886987E-04
   106 0.14400517239014E-04
   107 -.16643065622361E-02
   108 -.85416851279422E-02
   109 -.35969121171071E-02
   110 -.42098843439875E-03
   111 0.51513815322842E-03
   112 -.94149718829668E-04
   113 0.10545935400373E-04
   114 -.20420438802477E-04
   115 0.33650924591057E-03
   116 -.58211612361726E-04
   117 0.88855048022864E-03
   118 -.44163668015778E-02
   119 0.23584453078833E-03
   120 0.14239332866648E-03
   121 0.80702708525713E-04
   122 -.17790755979693E-02
   123 0.80138318257291E-03
   124 0.15617148572649E-03
   125 0.77650815293766E-05
   126 0.15248585391660E-06
   127 -.79175673832932E-05
   128 0.16471019435715E-03
   129 0.69653693254366E-04
   130 0.27464262099431E-04
   131 0.27016184755319E-03
   132 0.57429138671176E-03
   133 0.31834191041115E-03
   134 0.40199230555000E-04
   135 0.53903457808915E-04
   136 0.25375751417269E-03
   137 -.43718018063714E-02
   138 -.20516105774697E-02
   139 0.39443566471589E-04
   140 -.19443129387050E-03
   141 0.25430280699499E-03
   142 0.12607029753611E-03
   143 -.19184763159809E-03
   144 -.10022939294158E-03
   145 -.61990719215911E-04
   146 -.17144219550869E-02
   147 0.12618812744853E-02
   148 -.37892023643782E-02
   149 -.12153517104524E-03
   150 0.17911576201566E-04
   151 -.52263581560840E-05
   152 0.10943926287882E-02
   153 0.78853898032969E-03
   154 0.42847340728909E-03
   155 -.26127164659370E-03
   156 0.16592062243907E-03
   157 0.95351024154621E-04
   158 -.36121956511507E-04
   159 -.55900779346375E-04
   160 0.31829782842929E-04
 Sym=     3a   
 Ene= -.19061368966047E+02
 Spin= Alpha
 Occup= 2.000000
     1 -.20035806395834E-04
     2 0.11222360818035E-03
     3 -.26945552033589E-02
     4 -.98343857024043E-04
     5 -.14533791160111E-04
     6 -.14864657982153E-04
     7 0.56780871969788E-04
     8 0.29978504481785E-02
     9 0.11963676515452E-02
    10 0.13588070533938E-03
    11 -.13471535271578E-03
    12 -.11653526235908E-05
    13 -.12434068844146E-03
    14 -.38308133977787E-04
    15 -.89511282267882E-04
    16 -.17810093576365E-03
    17 -.11540478810510E-02
    18 -.39621803281020E-02
    19 -.30723953954120E-03
    20 0.26949113257093E-03
    21 0.76747058972160E-04
    22 0.73215340298078E-02
    23 -.74992544641556E-02
    24 -.22516122380905E-02
    25 0.78132963224781E-04
    26 0.22174648546100E-03
    27 -.29987944868578E-03
    28 -.66779662328601E-03
    29 -.21674098664629E-03
    30 0.19506284749502E-03
    31 0.15518320740921E-03
    32 0.70852645068728E-03
    33 0.16428772303884E-03
    34 -.15747442270571E-03
    35 0.69256961205107E-04
    36 0.14870312898939E-03
    37 0.70823425617282E-03
    38 0.17702003487315E-03
    39 -.83164983832703E-04
    40 -.12587354347400E-03
    41 -.17792395812397E-03
    42 -.75549822223565E-03
    43 -.22027245751156E-03
    44 -.64217346061926E-04
    45 -.51160495858839E-04
    46 0.77887019401381E-03
    47 0.26936866956982E-03
    48 -.16814045572668E-02
    49 0.26677270669667E-03
    50 0.23190748034738E-03
    51 0.11991029615758E-03
    52 -.26867800119570E-02
    53 -.11394927445035E-02
    54 -.73151296437834E-03
    55 -.48035619769445E-05
    56 0.19454125296945E-05
    57 0.28581494472499E-05
    58 -.12258642548585E-03
    59 -.51292891227326E-04
    60 -.18080826831280E-04
    61 0.72642583475530E+00
    62 -.30298005034535E-01
    63 0.24063490558861E-01
    64 -.99485824711608E-03
    65 0.13918142759232E-02
    66 0.45588207915110E-03
    67 0.22916317670839E-02
    68 -.34366845810309E-02
    69 -.11430438182800E-02
    70 -.20845687479173E-04
    71 -.20477222787385E-04
    72 0.41322910266559E-04
    73 0.15682583875128E-03
    74 0.55524640090603E-04
    75 -.12220035286499E-04
    76 -.10089545159158E-02
    77 -.23197548390100E-02
    78 0.23862403824608E-03
    79 0.19665502947117E-03
    80 0.10283205424950E-03
    81 0.13265744563191E-03
    82 0.63573764367161E-03
    83 -.16850825697731E-03
    84 0.75938872006244E-04
    85 0.11676251720350E-03
    86 0.63524363581974E-03
    87 0.20310318490104E-03
    88 -.14955576234263E-02
    89 -.26542116463415E-03
    90 -.22917386546662E-03
    91 -.11885068564320E-03
    92 0.25520345898573E-02
    93 0.11581627966378E-02
    94 0.72514586220456E-03
    95 -.28321988413868E-05
    96 -.12232302050209E-05
    97 0.40554290464078E-05
    98 -.11368722304494E-03
    99 -.47635391196658E-04
   100 -.19137131678123E-04
   101 -.16341533054231E-03
   102 -.10855350014751E-02
   103 -.35895726077453E-02
   104 0.26061177562736E-03
   105 -.24613472823740E-03
   106 -.72039086048496E-04
   107 -.65224665624859E-02
   108 0.70730315710379E-02
   109 0.21648995276740E-02
   110 0.69447555593444E-04
   111 0.21257431264122E-03
   112 -.28202186823467E-03
   113 -.61979059296966E-03
   114 -.20104561005255E-03
   115 0.18701539250774E-03
   116 -.19167089666005E-04
   117 0.99120698429410E-04
   118 -.22545782872083E-02
   119 0.97144340381200E-04
   120 0.14619011842055E-04
   121 0.15365668100383E-04
   122 0.33458227696707E-04
   123 -.27622565532631E-02
   124 -.10988352841960E-02
   125 0.12777125106400E-03
   126 -.12555482160076E-03
   127 -.22164294632304E-05
   128 -.11527538817689E-03
   129 -.34853626180569E-04
   130 -.83232550127296E-04
   131 0.13543995819241E-03
   132 0.63614212521505E-03
   133 -.15321255303902E-03
   134 0.14619389146246E-03
   135 -.62789601490458E-04
   136 -.10274832756706E-02
   137 -.25107668741511E-02
   138 -.29582179495457E-03
   139 -.18315146871829E-03
   140 -.10343319341476E-03
   141 -.17143074466582E-03
   142 -.71109964392391E-03
   143 0.20638241743925E-03
   144 0.61115223105463E-04
   145 0.46846875364527E-04
   146 0.67125250678959E+00
   147 -.28004001734206E-01
   148 0.22198551971673E-01
   149 0.92245060879667E-03
   150 -.12903636023220E-02
   151 -.42262376626423E-03
   152 -.21299593744893E-02
   153 0.31627520132037E-02
   154 0.10494581575093E-02
   155 -.17990907843834E-04
   156 -.18689015806938E-04
   157 0.36679923650772E-04
   158 0.14617709477967E-03
   159 0.52222890907021E-04
   160 -.10140859381328E-04
 Sym=     4a   
 Ene= -.19061358523957E+02
 Spin= Alpha
 Occup= 2.000000
     1 0.10186211816986E-04
     2 -.16025385913668E-03
     3 0.54668878470221E-02
     4 0.10425186260509E-04
     5 -.37156261648784E-05
     6 -.15568691988324E-05
     7 -.11346250549117E-02
     8 -.28506059048398E-02
     9 -.12452044985284E-02
    10 -.96683678754497E-04
    11 0.10790157100683E-03
    12 -.11217892252336E-04
    13 0.11106660633364E-03
    14 0.38878173609814E-04
    15 0.80197493547040E-04
    16 0.17926512241132E-03
    17 0.82395165588322E-03
    18 0.45745506021781E-02
    19 0.57941407487855E-03
    20 -.28608497321980E-03
    21 -.55739255832402E-04
    22 -.98475719386303E-02
    23 0.51074302754997E-02
    24 0.10314027063471E-02
    25 -.10744595189303E-03
    26 -.10650466603952E-03
    27 0.21395061793255E-03
    28 0.58206652356098E-03
    29 0.19263737242273E-03
    30 -.95956679808736E-04
    31 -.22274042898417E-03
    32 -.88663121977229E-03
    33 -.11408787547530E-03
    34 0.14173240841547E-03
    35 -.59638324814033E-04
    36 -.21805421683512E-03
    37 -.89458383500815E-03
    38 -.12518722594373E-03
    39 0.73726305955841E-04
    40 0.11804023161954E-03
    41 0.76074664994750E-04
    42 0.53644886219432E-03
    43 0.16912043209909E-03
    44 0.42867372646893E-04
    45 0.36639513137586E-04
    46 -.17921814293456E-02
    47 -.83009131401937E-03
    48 0.22918715178547E-02
    49 -.62458436237234E-05
    50 -.24918410815549E-04
    51 -.10255012169100E-04
    52 0.16031206768815E-02
    53 -.28121440871315E-03
    54 0.51128683056812E-04
    55 0.24828705960640E-04
    56 -.39691958360210E-04
    57 0.14863252399570E-04
    58 0.10812403073454E-03
    59 0.44300577617143E-04
    60 -.14642130077269E-04
    61 -.67126500061101E+00
    62 0.27906710806434E-01
    63 -.22710803710925E-01
    64 0.87937755633524E-03
    65 -.12322748773189E-02
    66 -.40377751886795E-03
    67 -.19611655828688E-02
    68 0.33407708855972E-02
    69 0.11386711205226E-02
    70 0.35423149743563E-04
    71 0.21899266849445E-04
    72 -.57322416593007E-04
    73 -.12881299513282E-03
    74 -.39975914161018E-04
    75 0.25973387582486E-04
    76 -.27466044765389E-03
    77 -.25132665660225E-02
    78 0.73526779782366E-03
    79 -.16291634373530E-03
    80 0.10193776689749E-04
    81 0.23047628421572E-03
    82 0.94551536458139E-03
    83 -.14089137816394E-03
    84 0.79007982588259E-04
    85 0.12798921000129E-03
    86 0.18482253331970E-02
    87 0.84875242531928E-03
    88 -.24174553626647E-02
    89 -.27237336999313E-04
    90 -.43066298690704E-04
    91 -.19825396891714E-04
    92 0.18098259195415E-02
    93 -.19053305557239E-03
    94 0.10863233154773E-03
    95 -.25139700054980E-04
    96 0.39701510819983E-04
    97 -.14561810765003E-04
    98 -.11745386975833E-03
    99 -.48219125327319E-04
   100 0.13205668593907E-04
   101 -.19274569580675E-03
   102 -.91238470748163E-03
   103 -.48729728645632E-02
   104 0.60182611672829E-03
   105 -.30652297607590E-03
   106 -.61406985994926E-04
   107 -.10394385110745E-01
   108 0.56816342861211E-02
   109 0.12092983820353E-02
   110 0.11332930938920E-03
   111 0.12356998295491E-03
   112 -.23689929234411E-03
   113 -.63278567737426E-03
   114 -.20944829914515E-03
   115 0.11115233998268E-03
   116 -.11728541244149E-04
   117 0.16846235379262E-03
   118 -.56617033381339E-02
   119 0.18054844828962E-04
   120 -.27713249157200E-05
   121 0.17454134956152E-06
   122 -.11347481847971E-02
   123 -.30758191300121E-02
   124 -.13419107047882E-02
   125 0.10700395923822E-03
   126 -.11796302987836E-03
   127 0.10959070640138E-04
   128 -.12065026471472E-03
   129 -.41380991780065E-04
   130 -.87312099580835E-04
   131 0.23282408691476E-03
   132 0.94180700687586E-03
   133 -.12482548615913E-03
   134 0.15412338121422E-03
   135 -.63524524095798E-04
   136 0.19435448519003E-03
   137 0.23226982409942E-02
   138 0.71413285199168E-03
   139 -.17789234115481E-03
   140 0.20042547477419E-05
   141 -.89934778462674E-04
   142 -.59462315122854E-03
   143 0.18605562853878E-03
   144 0.48209883254497E-04
   145 0.39437793476409E-04
   146 0.72643736520170E+00
   147 -.30208185662080E-01
   148 0.24537167577943E-01
   149 0.95506452929548E-03
   150 -.13381715644783E-02
   151 -.43843961958669E-03
   152 -.21357311245800E-02
   153 0.36014712155081E-02
   154 0.12247693039019E-02
   155 -.36958230105221E-04
   156 -.23438824874334E-04
   157 0.60397054979555E-04
   158 0.14077279550895E-03
   159 0.44239600822972E-04
   160 -.26872449831968E-04
 Sym=     5a   
 Ene= -.10261357397692E+02
 Spin= Alpha
 Occup= 2.000000
     1 0.68752698365332E-03
     2 -.17387809015387E-02
     3 0.10919323376088E-01
     4 0.15627048370516E-02
     5 0.33358816670832E-03
     6 0.29804320945721E-03
     7 -.44379418644091E-02
     8 -.13682522553398E-02
     9 -.10183254393689E-02
    10 -.59218407588831E-03
    11 0.28835216185759E-03
    12 0.30383191403071E-03
    13 -.24578102264875E-03
    14 -.21007572516505E-03
    15 -.49723733420440E-04
    16 0.92718439261697E+00
    17 0.41532923669386E-01
    18 -.12666961077685E-01
    19 -.13631128885760E-02
    20 -.33493845945120E-03
    21 -.27260193162551E-03
    22 -.13143987289342E-01
    23 -.13509376643244E-02
    24 -.19018311785572E-02
    25 0.39134018881973E-03
    26 0.62277197289979E-03
    27 -.10141121617195E-02
    28 -.44516787103855E-03
    29 0.24617396956393E-04
    30 0.84996558242115E-03
    31 -.59418189840950E-04
    32 0.28315024279282E-03
    33 -.39727001943302E-03
    34 -.67918652443234E-04
    35 0.32034405637979E-04
    36 -.60172143361017E-04
    37 0.29523926667777E-03
    38 -.37649234402229E-03
    39 -.35529356162982E-06
    40 -.14112396816948E-03
    41 0.10974519685474E-04
    42 0.34906021073271E-03
    43 -.27230569684487E-03
    44 -.19014917636485E-03
    45 -.10115479181161E-03
    46 -.69229811536261E-05
    47 0.10903359726483E-02
    48 -.87218624844658E-02
    49 -.31683270751076E-03
    50 -.63418197974744E-03
    51 -.28717694906314E-03
    52 0.32744026346409E-02
    53 -.54139325410836E-02
    54 -.18331053672885E-02
    55 0.40187897495780E-04
    56 -.45303497352172E-03
    57 0.41284707602594E-03
    58 -.11253854810277E-03
    59 -.11090473689908E-03
    60 -.49673738181996E-03
    61 0.12260884257915E-03
    62 0.73571491426685E-03
    63 -.10101699999672E-01
    64 -.81781432437611E-03
    65 0.33801569943038E-03
    66 0.50941818417341E-04
    67 -.36038637786053E-02
    68 0.58685777070083E-02
    69 0.19850587706191E-02
    70 -.89909756943200E-04
    71 -.13549239949907E-03
    72 0.22540215644227E-03
    73 0.35474136279014E-03
    74 0.99703337998855E-04
    75 -.15096698037420E-03
    76 0.19696151938957E-02
    77 0.11194837005040E-02
    78 0.85774696041671E-03
    79 0.47380433806669E-03
    80 0.27780055727809E-03
    81 0.19581440093193E-04
    82 -.11321192191590E-03
    83 -.15116700152397E-03
    84 0.29978256269378E-06
    85 -.49650246566297E-04
    86 0.15397657363335E-04
    87 -.34785802798030E-03
    88 0.33822446353955E-02
    89 -.52114088548521E-04
    90 -.24590440014504E-03
    91 -.10392595350514E-03
    92 0.14627561659508E-02
    93 -.16791099700276E-02
    94 -.52272506135636E-03
    95 0.19821257938481E-04
    96 0.14780764271954E-03
    97 -.16762890065802E-03
    98 0.85143347750926E-04
    99 0.64714250491969E-04
   100 0.18743442400546E-03
   101 -.34470402964145E+00
   102 -.15362832398878E-01
   103 0.49648729780072E-02
   104 -.48947142122447E-03
   105 -.10306319892036E-03
   106 -.91226100838694E-04
   107 -.48260453954873E-02
   108 -.11053438318347E-03
   109 -.54030257972185E-03
   110 -.14730767945987E-03
   111 -.22790122651443E-03
   112 0.37520890597431E-03
   113 0.16708982070746E-03
   114 -.79970686406064E-05
   115 -.31252139162823E-03
   116 -.25618008872380E-03
   117 0.63001939094474E-03
   118 -.39520817477446E-02
   119 0.57735205518090E-03
   120 0.12320994765258E-03
   121 0.10921237916075E-03